                               Psi4 1.9.1 release

  ==> Input File <==

--------------------------------------------------------------------------
#charge=0 charge_a=0 charge_b=0 selection_a=1-2 selection_b=3-6 scaling=0.95 benchmark_Eint=-9.424 benchmark_unit=kcal/mol group=XH-N
set_num_threads(4)
memory 8 GB
basis this_basis {
    assign    aug-cc-pVQZ
}

molecule {
     0 1
    --
     0 1
     H        0.00000       -0.31269        0.00000
    Cl       -0.00000        1.03066        0.00000
    --
     0 1
     N        0.00000       -1.94839        0.00000
     H       -0.47318       -2.30740        0.81958
     H       -0.47318       -2.30740       -0.81958
     H        0.94637       -2.30740        0.00000
}

set {
    scf_type                DF
    freeze_core             true
    sapt_dft_grac_shift_a    0.116251
    sapt_dft_grac_shift_b    0.113162
    sapt_dft_do_hybrid      true
    do_ind_exch_sinf        true
    do_disp_exch_sinf       true
}

nrg = energy('sapt(DFT)')
--------------------------------------------------------------------------

    Molecular point group: c1
  Charge       = 0
  Multiplicity = 1
  Basis Set: THIS_BASIS
    Blend: AUG-CC-PVQZ
  Basis Set: (THIS_BASIS AUX)
    Blend: AUG-CC-PVQZ-JKFIT
  @DF-RHF Final Energy:  -516.34037131781292
    Total Energy =                       -516.3403713178129237
 Dipole X            :         -0.0000057            0.0000088            0.0000031
 Dipole Y            :          5.8700929           -7.7986488           -1.9285559
 Dipole Z            :         -0.0000000            0.0000000           -0.0000000
 Magnitude           :                                                    1.9285559
    Molecular point group: c1
  Basis Set: THIS_BASIS
    Blend: AUG-CC-PVQZ
  Basis Set: (THIS_BASIS AUX)
    Blend: AUG-CC-PVQZ-JKFIT
  @DF-RHF Final Energy:  -460.10802624032198
    Total Energy =                       -460.1080262403220331
  Basis Set: THIS_BASIS
    Blend: AUG-CC-PVQZ
  Basis Set: (THIS_BASIS AUX)
    Blend: AUG-CC-PVQZ-JKFIT
  @DF-RHF Final Energy:   -56.22399199810710
    Total Energy =                        -56.2239919981070955
  Basis Set: (THIS_BASIS AUX)
    Blend: AUG-CC-PVQZ-JKFIT
  Multiplicity = 1
  Basis Set: THIS_BASIS
    Blend: AUG-CC-PVQZ
  Basis Set: (THIS_BASIS AUX)
    Blend: AUG-CC-PVQZ-JKFIT
  @DF-RKS Final Energy:  -460.67502952742143
    Total Energy =                       -460.6750295274214295
    Molecular point group: c1

    Geometry (in Angstrom), charge = 0, multiplicity = 1:

       Center              X                  Y                   Z               Mass
    ------------   -----------------  -----------------  -----------------  -----------------
      Gh(H)          -0.000000190144    -0.340349544265     0.000000000000     1.007825032230
      Gh(CL)         -0.000000190144     1.003000455735     0.000000000000    34.968852682000
         N           -0.000000190144    -1.976049544265     0.000000000000    14.003074004430
         H           -0.473180190144    -2.335059544265     0.819580000000     1.007825032230
         H           -0.473180190144    -2.335059544265    -0.819580000000     1.007825032230
         H            0.946369809856    -2.335059544265     0.000000000000     1.007825032230

  Charge       = 0
  Multiplicity = 1
  Basis Set: THIS_BASIS
    Blend: AUG-CC-PVQZ
  Basis Set: (THIS_BASIS AUX)
    Blend: AUG-CC-PVQZ-JKFIT

    Orbital Energies [Eh]
    ---------------------

    Doubly Occupied:

       1A    -14.470574     2A     -0.988317     3A     -0.590822
       4A     -0.590820     5A     -0.393230

  @DF-RKS Final Energy:   -56.51977460770097

   => Energetics <=

    Nuclear Repulsion Energy =             11.9475428385057629
    One-Electron Energy =                 -99.6856397499771418
    Two-Electron Energy =                  37.2621638690880559
    DFT Exchange-Correlation Energy =      -6.0438415653176492
    Empirical Dispersion Energy =           0.0000000000000000
    VV10 Nonlocal Energy =                  0.0000000000000000
    Total Energy =                        -56.5197746077009668
 Dipole X            :         -0.0000058            0.0000153            0.0000095
 Dipole Y            :         38.8047427          -39.3772162           -0.5724736
 Dipole Z            :         -0.0000000            0.0000000           -0.0000000
 Magnitude           :                                                    0.5724736
  Basis Set: (THIS_BASIS AUX)
    Blend: AUG-CC-PVQZ-JKFIT
*** Psi4 exiting successfully. Buy a developer a beer!
