                               Psi4 1.9.1 release

  ==> Input File <==

--------------------------------------------------------------------------
#charge=0 charge_a=0 charge_b=0 selection_a=1-2 selection_b=3-6 scaling=1.0 benchmark_Eint=-9.680 benchmark_unit=kcal/mol group=XH-N
set_num_threads(4)
memory 8 GB
basis this_basis {
    assign    aug-cc-pVQZ
}

molecule {
     0 1
    --
     0 1
     H        0.00000       -0.31269        0.00000
    Cl       -0.00000        1.03066        0.00000
    --
     0 1
     N        0.00000       -2.03448        0.00000
     H       -0.47318       -2.39349        0.81958
     H       -0.47318       -2.39349       -0.81958
     H        0.94637       -2.39349        0.00000
}

set {
    scf_type                DF
    freeze_core             true
    sapt_dft_grac_shift_a    0.116251
    sapt_dft_grac_shift_b    0.113162
    sapt_dft_do_hybrid      true
    do_ind_exch_sinf        true
    do_disp_exch_sinf       true
}

nrg = energy('sapt(DFT)')
--------------------------------------------------------------------------

    Molecular point group: c1
  Charge       = 0
  Multiplicity = 1
  Basis Set: THIS_BASIS
    Blend: AUG-CC-PVQZ
  Basis Set: (THIS_BASIS AUX)
    Blend: AUG-CC-PVQZ-JKFIT
  @DF-RHF Final Energy:  -516.34154660795571
    Total Energy =                       -516.3415466079557063
 Dipole X            :         -0.0000058            0.0000088            0.0000031
 Dipole Y            :          6.1257581           -7.9622122           -1.8364541
 Dipole Z            :          0.0000000            0.0000000            0.0000000
 Magnitude           :                                                    1.8364541
    Molecular point group: c1
  Basis Set: THIS_BASIS
    Blend: AUG-CC-PVQZ
  Basis Set: (THIS_BASIS AUX)
    Blend: AUG-CC-PVQZ-JKFIT
  @DF-RHF Final Energy:  -460.10802431151757
    Total Energy =                       -460.1080243115175676
  Basis Set: THIS_BASIS
    Blend: AUG-CC-PVQZ
  Basis Set: (THIS_BASIS AUX)
    Blend: AUG-CC-PVQZ-JKFIT
  @DF-RHF Final Energy:   -56.22399050266045
    Total Energy =                        -56.2239905026604490
  Basis Set: (THIS_BASIS AUX)
    Blend: AUG-CC-PVQZ-JKFIT
  Multiplicity = 1
  Basis Set: THIS_BASIS
    Blend: AUG-CC-PVQZ
  Basis Set: (THIS_BASIS AUX)
    Blend: AUG-CC-PVQZ-JKFIT
  @DF-RKS Final Energy:  -460.67502828906345
    Total Energy =                       -460.6750282890634480
    Molecular point group: c1

    Geometry (in Angstrom), charge = 0, multiplicity = 1:

       Center              X                  Y                   Z               Mass
    ------------   -----------------  -----------------  -----------------  -----------------
      Gh(H)          -0.000000190144    -0.312694329665     0.000000000000     1.007825032230
      Gh(CL)         -0.000000190144     1.030655670335     0.000000000000    34.968852682000
         N           -0.000000190144    -2.034484329665     0.000000000000    14.003074004430
         H           -0.473180190144    -2.393494329665     0.819580000000     1.007825032230
         H           -0.473180190144    -2.393494329665    -0.819580000000     1.007825032230
         H            0.946369809856    -2.393494329665     0.000000000000     1.007825032230

  Charge       = 0
  Multiplicity = 1
  Basis Set: THIS_BASIS
    Blend: AUG-CC-PVQZ
  Basis Set: (THIS_BASIS AUX)
    Blend: AUG-CC-PVQZ-JKFIT

    Orbital Energies [Eh]
    ---------------------

    Doubly Occupied:

       1A    -14.470551     2A     -0.988319     3A     -0.590823
       4A     -0.590821     5A     -0.393230

  @DF-RKS Final Energy:   -56.51976831969722

   => Energetics <=

    Nuclear Repulsion Energy =             11.9475428385057647
    One-Electron Energy =                 -99.6856641953703644
    Two-Electron Energy =                  37.2622037611565275
    DFT Exchange-Correlation Energy =      -6.0438507239891521
    Empirical Dispersion Energy =           0.0000000000000000
    VV10 Nonlocal Energy =                  0.0000000000000000
    Total Energy =                        -56.5197683196972207
 Dipole X            :         -0.0000036            0.0000153            0.0000117
 Dipole Y            :         39.9090049          -40.4814736           -0.5724688
 Dipole Z            :          0.0000000            0.0000000            0.0000000
 Magnitude           :                                                    0.5724688
  Basis Set: (THIS_BASIS AUX)
    Blend: AUG-CC-PVQZ-JKFIT
*** Psi4 exiting successfully. Buy a developer a beer!
