                               Psi4 1.9.1 release

  ==> Input File <==

--------------------------------------------------------------------------
#charge=0 charge_a=0 charge_b=0 selection_a=1-2 selection_b=3-6 scaling=1.1 benchmark_Eint=-9.339 benchmark_unit=kcal/mol group=XH-N
set_num_threads(4)
memory 8 GB
basis this_basis {
    assign    aug-cc-pVQZ
}

molecule {
     0 1
    --
     0 1
     H        0.00000       -0.31269        0.00000
    Cl       -0.00000        1.03066        0.00000
    --
     0 1
     N        0.00000       -2.20666        0.00000
     H       -0.47318       -2.56567        0.81958
     H       -0.47318       -2.56567       -0.81958
     H        0.94637       -2.56567        0.00000
}

set {
    scf_type                DF
    freeze_core             true
    sapt_dft_grac_shift_a    0.116251
    sapt_dft_grac_shift_b    0.113162
    sapt_dft_do_hybrid      true
    do_ind_exch_sinf        true
    do_disp_exch_sinf       true
}

nrg = energy('sapt(DFT)')
--------------------------------------------------------------------------

    Molecular point group: c1
  Charge       = 0
  Multiplicity = 1
  Basis Set: THIS_BASIS
    Blend: AUG-CC-PVQZ
  Basis Set: (THIS_BASIS AUX)
    Blend: AUG-CC-PVQZ-JKFIT
  @DF-RHF Final Energy:  -516.34238852502256
    Total Energy =                       -516.3423885250225567
 Dipole X            :         -0.0000059            0.0000088            0.0000030
 Dipole Y            :          6.6054084           -8.2893389           -1.6839305
 Dipole Z            :         -0.0000000            0.0000000           -0.0000000
 Magnitude           :                                                    1.6839305
    Molecular point group: c1
  Basis Set: THIS_BASIS
    Blend: AUG-CC-PVQZ
  Basis Set: (THIS_BASIS AUX)
    Blend: AUG-CC-PVQZ-JKFIT
  @DF-RHF Final Energy:  -460.10802102728360
    Total Energy =                       -460.1080210272835984
  Basis Set: THIS_BASIS
    Blend: AUG-CC-PVQZ
  Basis Set: (THIS_BASIS AUX)
    Blend: AUG-CC-PVQZ-JKFIT
  @DF-RHF Final Energy:   -56.22398711270964
    Total Energy =                        -56.2239871127096364
  Basis Set: (THIS_BASIS AUX)
    Blend: AUG-CC-PVQZ-JKFIT
  Multiplicity = 1
  Basis Set: THIS_BASIS
    Blend: AUG-CC-PVQZ
  Basis Set: (THIS_BASIS AUX)
    Blend: AUG-CC-PVQZ-JKFIT
  @DF-RKS Final Energy:  -460.67502633500709
    Total Energy =                       -460.6750263350070895
    Molecular point group: c1

    Geometry (in Angstrom), charge = 0, multiplicity = 1:

       Center              X                  Y                   Z               Mass
    ------------   -----------------  -----------------  -----------------  -----------------
      Gh(H)          -0.000000190144    -0.257383900463     0.000000000000     1.007825032230
      Gh(CL)         -0.000000190144     1.085966099537     0.000000000000    34.968852682000
         N           -0.000000190144    -2.151353900463     0.000000000000    14.003074004430
         H           -0.473180190144    -2.510363900463     0.819580000000     1.007825032230
         H           -0.473180190144    -2.510363900463    -0.819580000000     1.007825032230
         H            0.946369809856    -2.510363900463     0.000000000000     1.007825032230

  Charge       = 0
  Multiplicity = 1
  Basis Set: THIS_BASIS
    Blend: AUG-CC-PVQZ
  Basis Set: (THIS_BASIS AUX)
    Blend: AUG-CC-PVQZ-JKFIT

    Orbital Energies [Eh]
    ---------------------

    Doubly Occupied:

       1A    -14.470532     2A     -0.988324     3A     -0.590827
       4A     -0.590825     5A     -0.393232

  @DF-RKS Final Energy:   -56.51975940098273

   => Energetics <=

    Nuclear Repulsion Energy =             11.9475428385057612
    One-Electron Energy =                 -99.6856579114914894
    Two-Electron Energy =                  37.2622060890382514
    DFT Exchange-Correlation Energy =      -6.0438504170352605
    Empirical Dispersion Energy =           0.0000000000000000
    VV10 Nonlocal Energy =                  0.0000000000000000
    Total Energy =                        -56.5197594009827284
 Dipole X            :         -0.0000020            0.0000153            0.0000133
 Dipole Y            :         42.1175244          -42.6899884           -0.5724640
 Dipole Z            :         -0.0000000            0.0000000           -0.0000000
 Magnitude           :                                                    0.5724640
  Basis Set: (THIS_BASIS AUX)
    Blend: AUG-CC-PVQZ-JKFIT
*** Psi4 exiting successfully. Buy a developer a beer!
