                               Psi4 1.9.1 release

  ==> Input File <==

--------------------------------------------------------------------------
#charge=0 charge_a=0 charge_b=0 selection_a=1-2 selection_b=3-13 scaling=0.95 benchmark_Eint=-11.705 benchmark_unit=kcal/mol group=XH-N
set_num_threads(4)
memory 8 GB
basis this_basis {
    assign    aug-cc-pVQZ
}

molecule {
     0 1
    --
     0 1
     H        0.00000        0.00000        1.62588
    Cl        0.00000        0.00000        2.99334
    --
     0 1
     H        0.00000       -2.14771       -2.46854
     H        0.00000       -2.05142        0.02499
     C        0.00000        0.00000       -2.66234
     C        0.00000       -1.19640       -1.95822
     C        0.00000       -1.14931       -0.57229
     N        0.00000        0.00000        0.10071
     C       -0.00000        1.14931       -0.57229
     C       -0.00000        1.19640       -1.95822
     H       -0.00000        2.05142        0.02499
     H       -0.00000        2.14771       -2.46854
     H        0.00000        0.00000       -3.74291
}

set {
    sapt_dft_functional     PBE0
    scf_type                DF
    freeze_core             true
    sapt_dft_grac_shift_a    0.116251
    sapt_dft_grac_shift_b    0.074627
    sapt_dft_do_hybrid      true
    do_ind_exch_sinf        true
    do_disp_exch_sinf       true
}

nrg = energy('sapt(DFT)')
--------------------------------------------------------------------------

    Molecular point group: c1
  Charge       = 0
  Multiplicity = 1
  Basis Set: THIS_BASIS
    Blend: AUG-CC-PVQZ
  Basis Set: (THIS_BASIS AUX)
    Blend: AUG-CC-PVQZ-JKFIT
  @DF-RHF Final Energy:  -706.90880675426479
    Total Energy =                       -706.9088067542647877
 Dipole X            :         -0.0000000           -0.0000000           -0.0000000
 Dipole Y            :          0.0000000           -0.0000000            0.0000000
 Dipole Z            :          6.8829846           -9.5662714           -2.6832868
 Magnitude           :                                                    2.6832868
    Molecular point group: c1
  Basis Set: THIS_BASIS
    Blend: AUG-CC-PVQZ
  Basis Set: (THIS_BASIS AUX)
    Blend: AUG-CC-PVQZ-JKFIT
  @DF-RHF Final Energy:  -460.10581393796718
    Total Energy =                       -460.1058139379671843
  Basis Set: THIS_BASIS
    Blend: AUG-CC-PVQZ
  Basis Set: (THIS_BASIS AUX)
    Blend: AUG-CC-PVQZ-JKFIT
  @DF-RHF Final Energy:  -246.79358320916705
    Total Energy =                       -246.7935832091670818
  Basis Set: (THIS_BASIS AUX)
    Blend: AUG-CC-PVQZ-JKFIT
  Multiplicity = 1
  Basis Set: THIS_BASIS
    Blend: AUG-CC-PVQZ
  Basis Set: (THIS_BASIS AUX)
    Blend: AUG-CC-PVQZ-JKFIT
  @DF-RKS Final Energy:  -460.67327117349913
    Total Energy =                       -460.6732711734990744
    Molecular point group: c1

    Geometry (in Angstrom), charge = 0, multiplicity = 1:

       Center              X                  Y                   Z               Mass
    ------------   -----------------  -----------------  -----------------  -----------------
      Gh(H)           0.000000000000     0.000000000000     1.570718119627     1.007825032230
      Gh(CL)          0.000000000000     0.000000000000     2.938178119627    34.968852682000
         H            0.000000000000    -2.147710000000    -2.523701880373     1.007825032230
         H            0.000000000000    -2.051420000000    -0.030171880373     1.007825032230
         C            0.000000000000     0.000000000000    -2.717501880373    12.000000000000
         C            0.000000000000    -1.196400000000    -2.013381880373    12.000000000000
         C            0.000000000000    -1.149310000000    -0.627451880373    12.000000000000
         N            0.000000000000     0.000000000000     0.045548119627    14.003074004430
         C           -0.000000000000     1.149310000000    -0.627451880373    12.000000000000
         C           -0.000000000000     1.196400000000    -2.013381880373    12.000000000000
         H           -0.000000000000     2.051420000000    -0.030171880373     1.007825032230
         H           -0.000000000000     2.147710000000    -2.523701880373     1.007825032230
         H            0.000000000000     0.000000000000    -3.798071880373     1.007825032230

  Charge       = 0
  Multiplicity = 1
  Basis Set: THIS_BASIS
    Blend: AUG-CC-PVQZ
  Basis Set: (THIS_BASIS AUX)
    Blend: AUG-CC-PVQZ-JKFIT

    Orbital Energies [Eh]
    ---------------------

    Doubly Occupied:

       1A    -14.456108     2A    -10.336833     3A    -10.336827
       4A    -10.324755     5A    -10.314298     6A    -10.314275
       7A     -1.049872     8A     -0.908727     9A     -0.867566
      10A     -0.730851    11A     -0.727472    12A     -0.627360
      13A     -0.577181    14A     -0.564508    15A     -0.524562
      16A     -0.496549    17A     -0.496463    18A     -0.457408
      19A     -0.382006    20A     -0.358223    21A     -0.344668

  @DF-RKS Final Energy:  -248.08806536813219

   => Energetics <=

    Nuclear Repulsion Energy =            206.9829144884707262
    One-Electron Energy =                -743.5528253671089942
    Two-Electron Energy =                 315.5339604879326885
    DFT Exchange-Correlation Energy =     -27.0521149774267009
    Empirical Dispersion Energy =           0.0000000000000000
    VV10 Nonlocal Energy =                  0.0000000000000000
    Total Energy =                       -248.0880653681322201
 Dipole X            :          0.0000000           -0.0000000            0.0000000
 Dipole Y            :          0.0000000           -0.0000000            0.0000000
 Dipole Z            :        106.0606739         -106.9244817           -0.8638078
 Magnitude           :                                                    0.8638078
  Basis Set: (THIS_BASIS AUX)
    Blend: AUG-CC-PVQZ-JKFIT
*** Psi4 exiting successfully. Buy a developer a beer!
