                               Psi4 1.9.1 release

  ==> Input File <==

--------------------------------------------------------------------------
#charge=0 charge_a=0 charge_b=0 selection_a=1-2 selection_b=3-6 scaling=1.0 benchmark_Eint=-9.905 benchmark_unit=kcal/mol group=XH-N
set_num_threads(4)
memory 8 GB
basis this_basis {
    assign    aug-cc-pVQZ
}

molecule {
     0 1
    --
     0 1
     H        0.00002       -0.93248        0.00000
    Br       -0.00001        0.58174        0.00000
    --
     0 1
     N        0.00003       -2.57859        0.00000
     H       -0.47435       -2.93106        0.82165
     H       -0.47435       -2.93106       -0.82165
     H        0.94878       -2.93106        0.00000
}

set {
    sapt_dft_functional     PBE0
    scf_type                DF
    freeze_core             true
    sapt_dft_grac_shift_a    0.106591
    sapt_dft_grac_shift_b    0.113162
    sapt_dft_do_hybrid      true
    do_ind_exch_sinf        true
    do_disp_exch_sinf       true
}

nrg = energy('sapt(DFT)')
--------------------------------------------------------------------------

    Molecular point group: c1
  Charge       = 0
  Multiplicity = 1
  Basis Set: THIS_BASIS
    Blend: AUG-CC-PVQZ
  Basis Set: (THIS_BASIS AUX)
    Blend: AUG-CC-PVQZ-JKFIT
  @DF-RHF Final Energy: -2629.27899487261175
    Total Energy =                      -2629.2789948726117473
 Dipole X            :         -0.0001457            0.0001650            0.0000193
 Dipole Y            :         11.9923113          -14.0121145           -2.0198032
 Dipole Z            :          0.0000000            0.0000000            0.0000000
 Magnitude           :                                                    2.0198032
    Molecular point group: c1
  Basis Set: THIS_BASIS
    Blend: AUG-CC-PVQZ
  Basis Set: (THIS_BASIS AUX)
    Blend: AUG-CC-PVQZ-JKFIT
  @DF-RHF Final Energy: -2573.04670218321780
    Total Energy =                      -2573.0467021832173486
  Basis Set: THIS_BASIS
    Blend: AUG-CC-PVQZ
  Basis Set: (THIS_BASIS AUX)
    Blend: AUG-CC-PVQZ-JKFIT
  @DF-RHF Final Energy:   -56.22395257127144
    Total Energy =                        -56.2239525712714396
  Basis Set: (THIS_BASIS AUX)
    Blend: AUG-CC-PVQZ-JKFIT
  Multiplicity = 1
  Basis Set: THIS_BASIS
    Blend: AUG-CC-PVQZ
  Basis Set: (THIS_BASIS AUX)
    Blend: AUG-CC-PVQZ-JKFIT
  @DF-RKS Final Energy: -2574.50502835748830
    Total Energy =                      -2574.5050283574882997
    Molecular point group: c1

    Geometry (in Angstrom), charge = 0, multiplicity = 1:

       Center              X                  Y                   Z               Mass
    ------------   -----------------  -----------------  -----------------  -----------------
      Gh(H)           0.000022767418    -0.932480036259     0.000000000000     1.007825032230
      Gh(BR)         -0.000007232582     0.581739963741     0.000000000000    78.918337600000
         N            0.000032767418    -2.578590036259     0.000000000000    14.003074004430
         H           -0.474347232582    -2.931060036259     0.821650000000     1.007825032230
         H           -0.474347232582    -2.931060036259    -0.821650000000     1.007825032230
         H            0.948782767418    -2.931060036259     0.000000000000     1.007825032230

  Charge       = 0
  Multiplicity = 1
  Basis Set: THIS_BASIS
    Blend: AUG-CC-PVQZ
  Basis Set: (THIS_BASIS AUX)
    Blend: AUG-CC-PVQZ-JKFIT

    Orbital Energies [Eh]
    ---------------------

    Doubly Occupied:

       1A    -14.470303     2A     -0.987657     3A     -0.591362
       4A     -0.591360     5A     -0.392192

  @DF-RKS Final Energy:   -56.51971458612780

   => Energetics <=

    Nuclear Repulsion Energy =             11.9457834769598801
    One-Electron Energy =                 -99.6839012039712458
    Two-Electron Energy =                  37.2620831406218898
    DFT Exchange-Correlation Energy =      -6.0436799997383268
    Empirical Dispersion Energy =           0.0000000000000000
    VV10 Nonlocal Energy =                  0.0000000000000000
    Total Energy =                        -56.5197145861278045
 Dipole X            :         -0.0005929            0.0006003            0.0000074
 Dipole Y            :         50.1624888          -50.7265049           -0.5640161
 Dipole Z            :          0.0000000            0.0000000            0.0000000
 Magnitude           :                                                    0.5640161
  Basis Set: (THIS_BASIS AUX)
    Blend: AUG-CC-PVQZ-JKFIT
*** Psi4 exiting successfully. Buy a developer a beer!
