                               Psi4 1.9.1 release

  ==> Input File <==

--------------------------------------------------------------------------
#charge=0 charge_a=0 charge_b=0 selection_a=1-2 selection_b=3-6 scaling=0.85 benchmark_Eint=-7.319 benchmark_unit=kcal/mol group=XH-N
set_num_threads(4)
memory 8 GB
basis this_basis {
    assign    def2-qzvp
}

molecule {
     0 1
    --
     0 1
     H        0.00000       -0.31269        0.00000
    Cl       -0.00000        1.03066        0.00000
    --
     0 1
     N        0.00000       -1.77621        0.00000
     H       -0.47318       -2.13522        0.81958
     H       -0.47318       -2.13522       -0.81958
     H        0.94637       -2.13522        0.00000
}

set {
    sapt_dft_functional     PBE0
    scf_type                DF
    freeze_core             true
    sapt_dft_grac_shift_a    0.116251
    sapt_dft_grac_shift_b    0.113162
    sapt_dft_do_hybrid      true
    do_ind_exch_sinf        true
    do_disp_exch_sinf       true
}

nrg = energy('sapt(DFT)')
--------------------------------------------------------------------------

    Molecular point group: c1
  Charge       = 0
  Multiplicity = 1
  Basis Set: THIS_BASIS
    Blend: DEF2-QZVP
  Basis Set: (THIS_BASIS AUX)
    Blend: DEF2-UNIVERSAL-JKFIT
  @DF-RHF Final Energy:  -516.33652667792535
    Total Energy =                       -516.3365266779253488
 Dipole X            :         -0.0000055            0.0000088            0.0000033
 Dipole Y            :          5.3110905           -7.4715222           -2.1604317
 Dipole Z            :          0.0000000            0.0000000            0.0000000
 Magnitude           :                                                    2.1604317
    Molecular point group: c1
  Basis Set: THIS_BASIS
    Blend: DEF2-QZVP
  Basis Set: (THIS_BASIS AUX)
    Blend: DEF2-UNIVERSAL-JKFIT
  @DF-RHF Final Energy:  -460.10882415442592
    Total Energy =                       -460.1088241544259176
  Basis Set: THIS_BASIS
    Blend: DEF2-QZVP
  Basis Set: (THIS_BASIS AUX)
    Blend: DEF2-UNIVERSAL-JKFIT
  @DF-RHF Final Energy:   -56.22452328741801
    Total Energy =                        -56.2245232874180090
  Basis Set: (THIS_BASIS AUX)
    Blend: DEF2-UNIVERSAL-JKFIT
  Multiplicity = 1
  Basis Set: THIS_BASIS
    Blend: DEF2-QZVP
  Basis Set: (THIS_BASIS AUX)
    Blend: DEF2-UNIVERSAL-JKFIT
  @DF-RKS Final Energy:  -460.67750487181951
    Total Energy =                       -460.6775048718194512
    Molecular point group: c1

    Geometry (in Angstrom), charge = 0, multiplicity = 1:

       Center              X                  Y                   Z               Mass
    ------------   -----------------  -----------------  -----------------  -----------------
      Gh(H)          -0.000000190144    -0.395659973467     0.000000000000     1.007825032230
      Gh(CL)         -0.000000190144     0.947690026533     0.000000000000    34.968852682000
         N           -0.000000190144    -1.859179973467     0.000000000000    14.003074004430
         H           -0.473180190144    -2.218189973467     0.819580000000     1.007825032230
         H           -0.473180190144    -2.218189973467    -0.819580000000     1.007825032230
         H            0.946369809856    -2.218189973467     0.000000000000     1.007825032230

  Charge       = 0
  Multiplicity = 1
  Basis Set: THIS_BASIS
    Blend: DEF2-QZVP
  Basis Set: (THIS_BASIS AUX)
    Blend: DEF2-UNIVERSAL-JKFIT

    Orbital Energies [Eh]
    ---------------------

    Doubly Occupied:

       1A    -14.471944     2A     -0.987899     3A     -0.590448
       4A     -0.590446     5A     -0.392734

  @DF-RKS Final Energy:   -56.52030741305352

   => Energetics <=

    Nuclear Repulsion Energy =             11.9475428385057629
    One-Electron Energy =                 -99.6878490673499300
    Two-Electron Energy =                  37.2630697048107749
    DFT Exchange-Correlation Energy =      -6.0430708890201377
    Empirical Dispersion Energy =           0.0000000000000000
    VV10 Nonlocal Energy =                  0.0000000000000000
    Total Energy =                        -56.5203074130535228
 Dipole X            :         -0.0000128            0.0000153            0.0000025
 Dipole Y            :         36.5841185          -37.1687014           -0.5845829
 Dipole Z            :          0.0000000            0.0000000            0.0000000
 Magnitude           :                                                    0.5845829
  Basis Set: (THIS_BASIS AUX)
    Blend: DEF2-UNIVERSAL-JKFIT
*** Psi4 exiting successfully. Buy a developer a beer!
