                               Psi4 1.9.1 release

  ==> Input File <==

--------------------------------------------------------------------------
#charge=0 charge_a=0 charge_b=0 selection_a=1-2 selection_b=3-6 scaling=2.0 benchmark_Eint=-2.190 benchmark_unit=kcal/mol group=XH-N
set_num_threads(4)
memory 8 GB
basis this_basis {
    assign    def2-qzvp
}

molecule {
     0 1
    --
     0 1
     H        0.00000       -0.31269        0.00000
    Cl       -0.00000        1.03066        0.00000
    --
     0 1
     N        0.00001       -3.75628        0.00000
     H       -0.47318       -4.11529        0.81958
     H       -0.47318       -4.11529       -0.81958
     H        0.94637       -4.11529        0.00000
}

set {
    sapt_dft_functional     PBE0
    scf_type                DF
    freeze_core             true
    sapt_dft_grac_shift_a    0.116251
    sapt_dft_grac_shift_b    0.113162
    sapt_dft_do_hybrid      true
    do_ind_exch_sinf        true
    do_disp_exch_sinf       true
}

nrg = energy('sapt(DFT)')
--------------------------------------------------------------------------

    Molecular point group: c1
  Charge       = 0
  Multiplicity = 1
  Basis Set: THIS_BASIS
    Blend: DEF2-QZVP
  Basis Set: (THIS_BASIS AUX)
    Blend: DEF2-UNIVERSAL-JKFIT
  @DF-RHF Final Energy:  -516.33653776914662
    Total Energy =                       -516.3365377691466165
 Dipole X            :         -0.0000058            0.0000013           -0.0000044
 Dipole Y            :         10.0025404          -11.2334789           -1.2309386
 Dipole Z            :          0.0000000            0.0000000            0.0000000
 Magnitude           :                                                    1.2309386
    Molecular point group: c1
  Basis Set: THIS_BASIS
    Blend: DEF2-QZVP
  Basis Set: (THIS_BASIS AUX)
    Blend: DEF2-UNIVERSAL-JKFIT
  @DF-RHF Final Energy:  -460.10877398319849
    Total Energy =                       -460.1087739831984891
  Basis Set: THIS_BASIS
    Blend: DEF2-QZVP
  Basis Set: (THIS_BASIS AUX)
    Blend: DEF2-UNIVERSAL-JKFIT
  @DF-RHF Final Energy:   -56.22441538159142
    Total Energy =                        -56.2244153815914203
  Basis Set: (THIS_BASIS AUX)
    Blend: DEF2-UNIVERSAL-JKFIT
  Multiplicity = 1
  Basis Set: THIS_BASIS
    Blend: DEF2-QZVP
  Basis Set: (THIS_BASIS AUX)
    Blend: DEF2-UNIVERSAL-JKFIT
  @DF-RKS Final Energy:  -460.67741210617231
    Total Energy =                       -460.6774121061723690
    Molecular point group: c1

    Geometry (in Angstrom), charge = 0, multiplicity = 1:

       Center              X                  Y                   Z               Mass
    ------------   -----------------  -----------------  -----------------  -----------------
      Gh(H)          -0.000002832073     0.240409962352     0.000000000000     1.007825032230
      Gh(CL)         -0.000002832073     1.583759962352     0.000000000000    34.968852682000
         N            0.000007167927    -3.203180037648     0.000000000000    14.003074004430
         H           -0.473182832073    -3.562190037648     0.819580000000     1.007825032230
         H           -0.473182832073    -3.562190037648    -0.819580000000     1.007825032230
         H            0.946367167927    -3.562190037648     0.000000000000     1.007825032230

  Charge       = 0
  Multiplicity = 1
  Basis Set: THIS_BASIS
    Blend: DEF2-QZVP
  Basis Set: (THIS_BASIS AUX)
    Blend: DEF2-UNIVERSAL-JKFIT

    Orbital Energies [Eh]
    ---------------------

    Doubly Occupied:

       1A    -14.471532     2A     -0.987582     3A     -0.590167
       4A     -0.590164     5A     -0.392284

  @DF-RKS Final Energy:   -56.52012913119109

   => Energetics <=

    Nuclear Repulsion Energy =             11.9475428387581371
    One-Electron Energy =                 -99.6907461470243277
    Two-Electron Energy =                  37.2665534818487174
    DFT Exchange-Correlation Energy =      -6.0434793047736175
    Empirical Dispersion Energy =           0.0000000000000000
    VV10 Nonlocal Energy =                  0.0000000000000000
    Total Energy =                        -56.5201291311910907
 Dipole X            :         -0.0001021            0.0000977           -0.0000044
 Dipole Y            :         61.9778319          -62.5666217           -0.5887898
 Dipole Z            :          0.0000000            0.0000000            0.0000000
 Magnitude           :                                                    0.5887898
  Basis Set: (THIS_BASIS AUX)
    Blend: DEF2-UNIVERSAL-JKFIT
*** Psi4 exiting successfully. Buy a developer a beer!
