                               Psi4 1.9.1 release

  ==> Input File <==

--------------------------------------------------------------------------
#charge=0 charge_a=0 charge_b=0 selection_a=1-2 selection_b=3-6 scaling=1.1 benchmark_Eint=-9.339 benchmark_unit=kcal/mol group=XH-N
set_num_threads(4)
memory 8 GB
basis this_basis {
    assign    def2-qzvp
}

molecule {
     0 1
    --
     0 1
     H        0.00000       -0.31269        0.00000
    Cl       -0.00000        1.03066        0.00000
    --
     0 1
     N        0.00000       -2.20666        0.00000
     H       -0.47318       -2.56567        0.81958
     H       -0.47318       -2.56567       -0.81958
     H        0.94637       -2.56567        0.00000
}

set {
    sapt_dft_functional     PBE0
    scf_type                DF
    freeze_core             true
    sapt_dft_grac_shift_a    0.116251
    sapt_dft_grac_shift_b    0.113162
    sapt_dft_do_hybrid      true
    do_ind_exch_sinf        true
    do_disp_exch_sinf       true
}

nrg = energy('sapt(DFT)')
--------------------------------------------------------------------------

    Molecular point group: c1
  Charge       = 0
  Multiplicity = 1
  Basis Set: THIS_BASIS
    Blend: DEF2-QZVP
  Basis Set: (THIS_BASIS AUX)
    Blend: DEF2-UNIVERSAL-JKFIT
  @DF-RHF Final Energy:  -516.34362029789497
    Total Energy =                       -516.3436202978949723
 Dipole X            :         -0.0000058            0.0000088            0.0000030
 Dipole Y            :          6.5948581           -8.2893389           -1.6944807
 Dipole Z            :         -0.0000000            0.0000000           -0.0000000
 Magnitude           :                                                    1.6944807
    Molecular point group: c1
  Basis Set: THIS_BASIS
    Blend: DEF2-QZVP
  Basis Set: (THIS_BASIS AUX)
    Blend: DEF2-UNIVERSAL-JKFIT
  @DF-RHF Final Energy:  -460.10880777233416
    Total Energy =                       -460.1088077723341030
  Basis Set: THIS_BASIS
    Blend: DEF2-QZVP
  Basis Set: (THIS_BASIS AUX)
    Blend: DEF2-UNIVERSAL-JKFIT
  @DF-RHF Final Energy:   -56.22449493544011
    Total Energy =                        -56.2244949354401058
  Basis Set: (THIS_BASIS AUX)
    Blend: DEF2-UNIVERSAL-JKFIT
  Multiplicity = 1
  Basis Set: THIS_BASIS
    Blend: DEF2-QZVP
  Basis Set: (THIS_BASIS AUX)
    Blend: DEF2-UNIVERSAL-JKFIT
  @DF-RKS Final Energy:  -460.67747760553476
    Total Energy =                       -460.6774776055347616
    Molecular point group: c1

    Geometry (in Angstrom), charge = 0, multiplicity = 1:

       Center              X                  Y                   Z               Mass
    ------------   -----------------  -----------------  -----------------  -----------------
      Gh(H)          -0.000000190144    -0.257383900463     0.000000000000     1.007825032230
      Gh(CL)         -0.000000190144     1.085966099537     0.000000000000    34.968852682000
         N           -0.000000190144    -2.151353900463     0.000000000000    14.003074004430
         H           -0.473180190144    -2.510363900463     0.819580000000     1.007825032230
         H           -0.473180190144    -2.510363900463    -0.819580000000     1.007825032230
         H            0.946369809856    -2.510363900463     0.000000000000     1.007825032230

  Charge       = 0
  Multiplicity = 1
  Basis Set: THIS_BASIS
    Blend: DEF2-QZVP
  Basis Set: (THIS_BASIS AUX)
    Blend: DEF2-UNIVERSAL-JKFIT

    Orbital Energies [Eh]
    ---------------------

    Doubly Occupied:

       1A    -14.471808     2A     -0.987784     3A     -0.590340
       4A     -0.590338     5A     -0.392590

  @DF-RKS Final Energy:   -56.52024966206559

   => Energetics <=

    Nuclear Repulsion Energy =             11.9475428385057612
    One-Electron Energy =                 -99.6888890648582446
    Two-Electron Energy =                  37.2642940455317841
    DFT Exchange-Correlation Energy =      -6.0431974812448965
    Empirical Dispersion Energy =           0.0000000000000000
    VV10 Nonlocal Energy =                  0.0000000000000000
    Total Energy =                        -56.5202496620655879
 Dipole X            :         -0.0000054            0.0000153            0.0000099
 Dipole Y            :         42.1038675          -42.6899884           -0.5861209
 Dipole Z            :         -0.0000000            0.0000000           -0.0000000
 Magnitude           :                                                    0.5861209
  Basis Set: (THIS_BASIS AUX)
    Blend: DEF2-UNIVERSAL-JKFIT
*** Psi4 exiting successfully. Buy a developer a beer!
