                               Psi4 1.9.1 release

  ==> Input File <==

--------------------------------------------------------------------------
#charge=0 charge_a=0 charge_b=0 selection_a=1-2 selection_b=3-6 scaling=1.05 benchmark_Eint=-9.617 benchmark_unit=kcal/mol group=XH-N
set_num_threads(4)
memory 8 GB
basis this_basis {
    assign    def2-qzvp
}

molecule {
     0 1
    --
     0 1
     H        0.00000       -0.31269        0.00000
    Cl       -0.00000        1.03066        0.00000
    --
     0 1
     N        0.00000       -2.12057        0.00000
     H       -0.47318       -2.47958        0.81958
     H       -0.47318       -2.47958       -0.81958
     H        0.94637       -2.47958        0.00000
}

set {
    sapt_dft_functional     PBE0
    scf_type                DF
    freeze_core             true
    sapt_dft_grac_shift_a    0.116251
    sapt_dft_grac_shift_b    0.113162
    sapt_dft_do_hybrid      true
    do_ind_exch_sinf        true
    do_disp_exch_sinf       true
}

nrg = energy('sapt(DFT)')
--------------------------------------------------------------------------

    Molecular point group: c1
  Charge       = 0
  Multiplicity = 1
  Basis Set: THIS_BASIS
    Blend: DEF2-QZVP
  Basis Set: (THIS_BASIS AUX)
    Blend: DEF2-UNIVERSAL-JKFIT
  @DF-RHF Final Energy:  -516.34338123991881
    Total Energy =                       -516.3433812399188128
 Dipole X            :         -0.0000058            0.0000088            0.0000031
 Dipole Y            :          6.3597864           -8.1257755           -1.7659891
 Dipole Z            :          0.0000000            0.0000000            0.0000000
 Magnitude           :                                                    1.7659891
    Molecular point group: c1
  Basis Set: THIS_BASIS
    Blend: DEF2-QZVP
  Basis Set: (THIS_BASIS AUX)
    Blend: DEF2-UNIVERSAL-JKFIT
  @DF-RHF Final Energy:  -460.10881087172265
    Total Energy =                       -460.1088108717226532
  Basis Set: THIS_BASIS
    Blend: DEF2-QZVP
  Basis Set: (THIS_BASIS AUX)
    Blend: DEF2-UNIVERSAL-JKFIT
  @DF-RHF Final Energy:   -56.22449997788630
    Total Energy =                        -56.2244999778862962
  Basis Set: (THIS_BASIS AUX)
    Blend: DEF2-UNIVERSAL-JKFIT
  Multiplicity = 1
  Basis Set: THIS_BASIS
    Blend: DEF2-QZVP
  Basis Set: (THIS_BASIS AUX)
    Blend: DEF2-UNIVERSAL-JKFIT
  @DF-RKS Final Energy:  -460.67748287155035
    Total Energy =                       -460.6774828715504100
    Molecular point group: c1

    Geometry (in Angstrom), charge = 0, multiplicity = 1:

       Center              X                  Y                   Z               Mass
    ------------   -----------------  -----------------  -----------------  -----------------
      Gh(H)          -0.000000190144    -0.285039115064     0.000000000000     1.007825032230
      Gh(CL)         -0.000000190144     1.058310884936     0.000000000000    34.968852682000
         N           -0.000000190144    -2.092919115064     0.000000000000    14.003074004430
         H           -0.473180190144    -2.451929115064     0.819580000000     1.007825032230
         H           -0.473180190144    -2.451929115064    -0.819580000000     1.007825032230
         H            0.946369809856    -2.451929115064     0.000000000000     1.007825032230

  Charge       = 0
  Multiplicity = 1
  Basis Set: THIS_BASIS
    Blend: DEF2-QZVP
  Basis Set: (THIS_BASIS AUX)
    Blend: DEF2-UNIVERSAL-JKFIT

    Orbital Energies [Eh]
    ---------------------

    Doubly Occupied:

       1A    -14.471829     2A     -0.987803     3A     -0.590358
       4A     -0.590356     5A     -0.392614

  @DF-RKS Final Energy:   -56.52025875733933

   => Energetics <=

    Nuclear Repulsion Energy =             11.9475428385057647
    One-Electron Energy =                 -99.6887180949396878
    Two-Electron Energy =                  37.2640927693213797
    DFT Exchange-Correlation Energy =      -6.0431762702267857
    Empirical Dispersion Energy =           0.0000000000000000
    VV10 Nonlocal Energy =                  0.0000000000000000
    Total Energy =                        -56.5202587573393274
 Dipole X            :         -0.0000051            0.0000153            0.0000102
 Dipole Y            :         40.9997159          -41.5857310           -0.5860151
 Dipole Z            :          0.0000000            0.0000000            0.0000000
 Magnitude           :                                                    0.5860151
  Basis Set: (THIS_BASIS AUX)
    Blend: DEF2-UNIVERSAL-JKFIT
*** Psi4 exiting successfully. Buy a developer a beer!
