                               Psi4 1.9.1 release

  ==> Input File <==

--------------------------------------------------------------------------
#charge=0 charge_a=0 charge_b=0 selection_a=1-2 selection_b=3-6 scaling=0.9 benchmark_Eint=-8.705 benchmark_unit=kcal/mol group=XH-N
set_num_threads(4)
memory 8 GB
basis this_basis {
    assign    def2-qzvp
}

molecule {
     0 1
    --
     0 1
     H        0.00000       -0.31269        0.00000
    Cl       -0.00000        1.03066        0.00000
    --
     0 1
     N        0.00000       -1.86230        0.00000
     H       -0.47318       -2.22131        0.81958
     H       -0.47318       -2.22131       -0.81958
     H        0.94637       -2.22131        0.00000
}

set {
    sapt_dft_functional     PBE0
    scf_type                DF
    freeze_core             true
    sapt_dft_grac_shift_a    0.116251
    sapt_dft_grac_shift_b    0.113162
    sapt_dft_do_hybrid      true
    do_ind_exch_sinf        true
    do_disp_exch_sinf       true
}

nrg = energy('sapt(DFT)')
--------------------------------------------------------------------------

    Molecular point group: c1
  Charge       = 0
  Multiplicity = 1
  Basis Set: THIS_BASIS
    Blend: DEF2-QZVP
  Basis Set: (THIS_BASIS AUX)
    Blend: DEF2-UNIVERSAL-JKFIT
  @DF-RHF Final Energy:  -516.33956538065854
    Total Energy =                       -516.3395653806585415
 Dipole X            :         -0.0000056            0.0000088            0.0000032
 Dipole Y            :          5.5908628           -7.6350855           -2.0442227
 Dipole Z            :          0.0000000            0.0000000            0.0000000
 Magnitude           :                                                    2.0442227
    Molecular point group: c1
  Basis Set: THIS_BASIS
    Blend: DEF2-QZVP
  Basis Set: (THIS_BASIS AUX)
    Blend: DEF2-UNIVERSAL-JKFIT
  @DF-RHF Final Energy:  -460.10882068196321
    Total Energy =                       -460.1088206819631523
  Basis Set: THIS_BASIS
    Blend: DEF2-QZVP
  Basis Set: (THIS_BASIS AUX)
    Blend: DEF2-UNIVERSAL-JKFIT
  @DF-RHF Final Energy:   -56.22451694662782
    Total Energy =                        -56.2245169466278156
  Basis Set: (THIS_BASIS AUX)
    Blend: DEF2-UNIVERSAL-JKFIT
  Multiplicity = 1
  Basis Set: THIS_BASIS
    Blend: DEF2-QZVP
  Basis Set: (THIS_BASIS AUX)
    Blend: DEF2-UNIVERSAL-JKFIT
  @DF-RKS Final Energy:  -460.67749920781404
    Total Energy =                       -460.6774992078140372
    Molecular point group: c1

    Geometry (in Angstrom), charge = 0, multiplicity = 1:

       Center              X                  Y                   Z               Mass
    ------------   -----------------  -----------------  -----------------  -----------------
      Gh(H)          -0.000000190144    -0.368004758866     0.000000000000     1.007825032230
      Gh(CL)         -0.000000190144     0.975345241134     0.000000000000    34.968852682000
         N           -0.000000190144    -1.917614758866     0.000000000000    14.003074004430
         H           -0.473180190144    -2.276624758866     0.819580000000     1.007825032230
         H           -0.473180190144    -2.276624758866    -0.819580000000     1.007825032230
         H            0.946369809856    -2.276624758866     0.000000000000     1.007825032230

  Charge       = 0
  Multiplicity = 1
  Basis Set: THIS_BASIS
    Blend: DEF2-QZVP
  Basis Set: (THIS_BASIS AUX)
    Blend: DEF2-UNIVERSAL-JKFIT

    Orbital Energies [Eh]
    ---------------------

    Doubly Occupied:

       1A    -14.471910     2A     -0.987873     3A     -0.590422
       4A     -0.590420     5A     -0.392700

  @DF-RKS Final Energy:   -56.52029326386319

   => Energetics <=

    Nuclear Repulsion Energy =             11.9475428385057647
    One-Electron Energy =                 -99.6880975811352670
    Two-Electron Energy =                  37.2633623872831024
    DFT Exchange-Correlation Energy =      -6.0431009085167897
    Empirical Dispersion Energy =           0.0000000000000000
    VV10 Nonlocal Energy =                  0.0000000000000000
    Total Energy =                        -56.5202932638631879
 Dipole X            :         -0.0000094            0.0000153            0.0000059
 Dipole Y            :         37.6878136          -38.2729588           -0.5851452
 Dipole Z            :          0.0000000            0.0000000            0.0000000
 Magnitude           :                                                    0.5851452
  Basis Set: (THIS_BASIS AUX)
    Blend: DEF2-UNIVERSAL-JKFIT
*** Psi4 exiting successfully. Buy a developer a beer!
