                               Psi4 1.9.1 release

  ==> Input File <==

--------------------------------------------------------------------------
#charge=0 charge_a=0 charge_b=0 selection_a=1-2 selection_b=3-13 scaling=0.85 benchmark_Eint=-9.362 benchmark_unit=kcal/mol group=XH-N
set_num_threads(4)
memory 8 GB
basis this_basis {
    assign    def2-qzvp
}

molecule {
     0 1
    --
     0 1
     H        0.00000        0.00000        1.62588
    Cl        0.00000        0.00000        2.99334
    --
     0 1
     H        0.00000       -2.14771       -2.30799
     H        0.00000       -2.05142        0.18554
     C        0.00000        0.00000       -2.50179
     C        0.00000       -1.19640       -1.79768
     C        0.00000       -1.14931       -0.41174
     N        0.00000        0.00000        0.26125
     C       -0.00000        1.14931       -0.41174
     C       -0.00000        1.19640       -1.79768
     H       -0.00000        2.05142        0.18554
     H       -0.00000        2.14771       -2.30799
     H        0.00000        0.00000       -3.58237
}

set {
    sapt_dft_functional     PBE0
    scf_type                DF
    freeze_core             true
    sapt_dft_grac_shift_a    0.116251
    sapt_dft_grac_shift_b    0.074627
    sapt_dft_do_hybrid      true
    do_ind_exch_sinf        true
    do_disp_exch_sinf       true
}

nrg = energy('sapt(DFT)')
--------------------------------------------------------------------------

    Molecular point group: c1
  Charge       = 0
  Multiplicity = 1
  Basis Set: THIS_BASIS
    Blend: DEF2-QZVP
  Basis Set: (THIS_BASIS AUX)
    Blend: DEF2-UNIVERSAL-JKFIT
  @DF-RHF Final Energy:  -706.90583249874692
    Total Energy =                       -706.9058324987469177
 Dipole X            :          0.0000000           -0.0000000            0.0000000
 Dipole Y            :          0.0000000           -0.0000000            0.0000000
 Dipole Z            :          6.3379321           -9.3334512           -2.9955192
 Magnitude           :                                                    2.9955192
    Molecular point group: c1
  Basis Set: THIS_BASIS
    Blend: DEF2-QZVP
  Basis Set: (THIS_BASIS AUX)
    Blend: DEF2-UNIVERSAL-JKFIT
  @DF-RHF Final Energy:  -460.10658318435895
    Total Energy =                       -460.1065831843589535
  Basis Set: THIS_BASIS
    Blend: DEF2-QZVP
  Basis Set: (THIS_BASIS AUX)
    Blend: DEF2-UNIVERSAL-JKFIT
  @DF-RHF Final Energy:  -246.79525265251263
    Total Energy =                       -246.7952526525126586
  Basis Set: (THIS_BASIS AUX)
    Blend: DEF2-UNIVERSAL-JKFIT
  Multiplicity = 1
  Basis Set: THIS_BASIS
    Blend: DEF2-QZVP
  Basis Set: (THIS_BASIS AUX)
    Blend: DEF2-UNIVERSAL-JKFIT
  @DF-RKS Final Energy:  -460.67572741760341
    Total Energy =                       -460.6757274176034116
    Molecular point group: c1

    Geometry (in Angstrom), charge = 0, multiplicity = 1:

       Center              X                  Y                   Z               Mass
    ------------   -----------------  -----------------  -----------------  -----------------
      Gh(H)           0.000000000000     0.000000000000     1.460389838641     1.007825032230
      Gh(CL)          0.000000000000     0.000000000000     2.827849838641    34.968852682000
         H            0.000000000000    -2.147710000000    -2.473480161359     1.007825032230
         H            0.000000000000    -2.051420000000     0.020049838641     1.007825032230
         C            0.000000000000     0.000000000000    -2.667280161359    12.000000000000
         C            0.000000000000    -1.196400000000    -1.963170161359    12.000000000000
         C            0.000000000000    -1.149310000000    -0.577230161359    12.000000000000
         N            0.000000000000     0.000000000000     0.095759838641    14.003074004430
         C           -0.000000000000     1.149310000000    -0.577230161359    12.000000000000
         C           -0.000000000000     1.196400000000    -1.963170161359    12.000000000000
         H           -0.000000000000     2.051420000000     0.020049838641     1.007825032230
         H           -0.000000000000     2.147710000000    -2.473480161359     1.007825032230
         H            0.000000000000     0.000000000000    -3.747860161359     1.007825032230

  Charge       = 0
  Multiplicity = 1
  Basis Set: THIS_BASIS
    Blend: DEF2-QZVP
  Basis Set: (THIS_BASIS AUX)
    Blend: DEF2-UNIVERSAL-JKFIT

    Orbital Energies [Eh]
    ---------------------

    Doubly Occupied:

       1A    -14.458199     2A    -10.338399     3A    -10.338393
       4A    -10.326392     5A    -10.315941     6A    -10.315918
       7A     -1.049691     8A     -0.908563     9A     -0.867401
      10A     -0.730695    11A     -0.727311    12A     -0.627216
      13A     -0.576976    14A     -0.564410    15A     -0.524428
      16A     -0.496364    17A     -0.496329    18A     -0.457282
      19A     -0.381822    20A     -0.358042    21A     -0.344479

  @DF-RKS Final Energy:  -248.09021113217014

   => Energetics <=

    Nuclear Repulsion Energy =            206.9829300930069849
    One-Electron Energy =                -743.5466692328498084
    Two-Electron Energy =                 315.5182128002503532
    DFT Exchange-Correlation Energy =     -27.0446847925776304
    Empirical Dispersion Energy =           0.0000000000000000
    VV10 Nonlocal Energy =                  0.0000000000000000
    Total Energy =                       -248.0902111321701113
 Dipole X            :         -0.0000000           -0.0000000           -0.0000000
 Dipole Y            :          0.0000000           -0.0000000            0.0000000
 Dipole Z            :        102.0718958         -102.9388373           -0.8669415
 Magnitude           :                                                    0.8669415
  Basis Set: (THIS_BASIS AUX)
    Blend: DEF2-UNIVERSAL-JKFIT
*** Psi4 exiting successfully. Buy a developer a beer!
