                               Psi4 1.9.1 release

  ==> Input File <==

--------------------------------------------------------------------------
#charge=0 charge_a=0 charge_b=0 selection_a=1-2 selection_b=3-13 scaling=0.95 benchmark_Eint=-11.705 benchmark_unit=kcal/mol group=XH-N
set_num_threads(4)
memory 8 GB
basis this_basis {
    assign    aug-cc-pVQZ
}

molecule {
     0 1
    --
     0 1
     H        0.00000        0.00000        1.62588
    Cl        0.00000        0.00000        2.99334
    --
     0 1
     H        0.00000       -2.14771       -2.46854
     H        0.00000       -2.05142        0.02499
     C        0.00000        0.00000       -2.66234
     C        0.00000       -1.19640       -1.95822
}

set {
    scf_type                DF
    freeze_core             true
    sapt_dft_grac_shift_a    0.116251
    sapt_dft_grac_shift_b    0.113162
    sapt_dft_do_hybrid      true
    do_ind_exch_sinf        true
    do_disp_exch_sinf       true
}

nrg = energy('sapt(DFT)')
--------------------------------------------------------------------------

    Molecular point group: c1
  Charge       = 0
  Multiplicity = 1
  Basis Set: THIS_BASIS
    Blend: AUG-CC-PVQZ
  Basis Set: (THIS_BASIS AUX)
    Blend: AUG-CC-PVQZ-JKFIT
  @DF-RHF Final Energy:  -536.69520497994790
    Total Energy =                       -536.6952049799479028
 Dipole X            :         -2.5064771            3.3677363            0.8612592
 Dipole Y            :         -4.8325449            4.9878791            0.1553342
 Dipole Z            :          0.0000000            0.0000000            0.0000000
 Magnitude           :                                                    0.8751549
    Molecular point group: c1
  Basis Set: THIS_BASIS
    Blend: AUG-CC-PVQZ
  Basis Set: (THIS_BASIS AUX)
    Blend: AUG-CC-PVQZ-JKFIT
  @DF-RHF Final Energy:  -460.10578179120688
    Total Energy =                       -460.1057817912068799
  Basis Set: THIS_BASIS
    Blend: AUG-CC-PVQZ
  Basis Set: (THIS_BASIS AUX)
    Blend: AUG-CC-PVQZ-JKFIT
  @DF-RHF Final Energy:   -76.58938580810283
    Total Energy =                        -76.5893858081028327
  Basis Set: (THIS_BASIS AUX)
    Blend: AUG-CC-PVQZ-JKFIT
  Multiplicity = 1
  Basis Set: THIS_BASIS
    Blend: AUG-CC-PVQZ
  Basis Set: (THIS_BASIS AUX)
    Blend: AUG-CC-PVQZ-JKFIT
  @DF-RKS Final Energy:  -460.67323951242452
    Total Energy =                       -460.6732395124245159
    Molecular point group: c1

    Geometry (in Angstrom), charge = 0, multiplicity = 1:

       Center              X                  Y                   Z               Mass
    ------------   -----------------  -----------------  -----------------  -----------------
      Gh(H)          -0.299856272440    -0.845091813342     0.000000000000     1.007825032230
      Gh(CL)         -0.299856272440    -2.212551813342     0.000000000000    34.968852682000
         H            1.847853727560     3.249328186658     0.000000000000     1.007825032230
         H            1.751563727560     0.755798186658     0.000000000000     1.007825032230
         C           -0.299856272440     3.443128186658     0.000000000000    12.000000000000
         C            0.896543727560     2.739008186658     0.000000000000    12.000000000000

  Charge       = 0
  Multiplicity = 1
  Basis Set: THIS_BASIS
    Blend: AUG-CC-PVQZ
  Basis Set: (THIS_BASIS AUX)
    Blend: AUG-CC-PVQZ-JKFIT

    Orbital Energies [Eh]
    ---------------------

    Doubly Occupied:

       1A    -10.436509     2A    -10.409949     3A     -0.892803
       4A     -0.662762     5A     -0.476151     6A     -0.434257
       7A     -0.416797

  @DF-RKS Final Energy:   -77.01428710109492

   => Energetics <=

    Nuclear Repulsion Energy =             20.7577069783357437
    One-Electron Energy =                -143.6424170022622775
    Two-Electron Energy =                  54.2846319076018204
    DFT Exchange-Correlation Energy =      -8.4142089847702124
    Empirical Dispersion Energy =           0.0000000000000000
    VV10 Nonlocal Energy =                  0.0000000000000000
    Total Energy =                        -77.0142871010949221
 Dipole X            :        -12.6705659           13.5673684            0.8968025
 Dipole Y            :        -78.2119329           77.6638596           -0.5480733
 Dipole Z            :         -0.0000000            0.0000000           -0.0000000
 Magnitude           :                                                    1.0510181
  Basis Set: (THIS_BASIS AUX)
    Blend: AUG-CC-PVQZ-JKFIT
*** Psi4 exiting successfully. Buy a developer a beer!
