                               Psi4 1.9.1 release

  ==> Input File <==

--------------------------------------------------------------------------
#charge=0 charge_a=0 charge_b=0 selection_a=1-2 selection_b=3-13 scaling=1.5 benchmark_Eint=-6.695 benchmark_unit=kcal/mol group=XH-N
set_num_threads(4)
memory 8 GB
basis this_basis {
    assign    def2-qzvp
}

molecule {
     0 1
    --
     0 1
     H        0.00000        0.00000        1.62588
    Cl        0.00000        0.00000        2.99334
    --
     0 1
     H        0.00000       -2.14771       -3.35153
     H        0.00000       -2.05142       -0.85800
     C        0.00000        0.00000       -3.54533
     C        0.00000       -1.19640       -2.84122
     C        0.00000       -1.14931       -1.45528
     N        0.00000        0.00000       -0.78229
     C        0.00000        1.14931       -1.45528
     C        0.00000        1.19640       -2.84122
     H        0.00000        2.05142       -0.85800
     H        0.00000        2.14771       -3.35153
     H        0.00000        0.00000       -4.62591
}

set {
    sapt_dft_functional     PBE0
    scf_type                DF
    freeze_core             true
    sapt_dft_grac_shift_a    0.116251
    sapt_dft_grac_shift_b    0.074627
    sapt_dft_do_hybrid      true
    do_ind_exch_sinf        true
    do_disp_exch_sinf       true
}

nrg = energy('sapt(DFT)')
--------------------------------------------------------------------------

    Molecular point group: c1
  Charge       = 0
  Multiplicity = 1
  Basis Set: THIS_BASIS
    Blend: DEF2-QZVP
  Basis Set: (THIS_BASIS AUX)
    Blend: DEF2-UNIVERSAL-JKFIT
  @DF-RHF Final Energy:  -706.90987886573726
    Total Energy =                       -706.9098788657372552
 Dipole X            :         -0.0000000           -0.0000000           -0.0000000
 Dipole Y            :          0.0000000           -0.0000000            0.0000000
 Dipole Z            :          9.0330970          -10.8466887           -1.8135917
 Magnitude           :                                                    1.8135917
    Molecular point group: c1
  Basis Set: THIS_BASIS
    Blend: DEF2-QZVP
  Basis Set: (THIS_BASIS AUX)
    Blend: DEF2-UNIVERSAL-JKFIT
  @DF-RHF Final Energy:  -460.10654121809938
    Total Energy =                       -460.1065412180993235
  Basis Set: THIS_BASIS
    Blend: DEF2-QZVP
  Basis Set: (THIS_BASIS AUX)
    Blend: DEF2-UNIVERSAL-JKFIT
  @DF-RHF Final Energy:  -246.79523317864926
    Total Energy =                       -246.7952331786492550
  Basis Set: (THIS_BASIS AUX)
    Blend: DEF2-UNIVERSAL-JKFIT
  Multiplicity = 1
  Basis Set: THIS_BASIS
    Blend: DEF2-QZVP
  Basis Set: (THIS_BASIS AUX)
    Blend: DEF2-UNIVERSAL-JKFIT
  @DF-RKS Final Energy:  -460.67566588738015
    Total Energy =                       -460.6756658873801484
    Molecular point group: c1

    Geometry (in Angstrom), charge = 0, multiplicity = 1:

       Center              X                  Y                   Z               Mass
    ------------   -----------------  -----------------  -----------------  -----------------
      Gh(H)           0.000000000000     0.000000000000     2.177521658694     1.007825032230
      Gh(CL)          0.000000000000     0.000000000000     3.544981658694    34.968852682000
         H            0.000000000000    -2.147710000000    -2.799888341306     1.007825032230
         H            0.000000000000    -2.051420000000    -0.306358341306     1.007825032230
         C            0.000000000000     0.000000000000    -2.993688341306    12.000000000000
         C            0.000000000000    -1.196400000000    -2.289578341306    12.000000000000
         C            0.000000000000    -1.149310000000    -0.903638341306    12.000000000000
         N            0.000000000000     0.000000000000    -0.230648341306    14.003074004430
         C           -0.000000000000     1.149310000000    -0.903638341306    12.000000000000
         C           -0.000000000000     1.196400000000    -2.289578341306    12.000000000000
         H           -0.000000000000     2.051420000000    -0.306358341306     1.007825032230
         H           -0.000000000000     2.147710000000    -2.799888341306     1.007825032230
         H            0.000000000000     0.000000000000    -4.074268341306     1.007825032230

  Charge       = 0
  Multiplicity = 1
  Basis Set: THIS_BASIS
    Blend: DEF2-QZVP
  Basis Set: (THIS_BASIS AUX)
    Blend: DEF2-UNIVERSAL-JKFIT

    Orbital Energies [Eh]
    ---------------------

    Doubly Occupied:

       1A    -14.458198     2A    -10.338390     3A    -10.338384
       4A    -10.326379     5A    -10.315929     6A    -10.315906
       7A     -1.049678     8A     -0.908552     9A     -0.867389
      10A     -0.730682    11A     -0.727298    12A     -0.627203
      13A     -0.576962    14A     -0.564398    15A     -0.524415
      16A     -0.496354    17A     -0.496316    18A     -0.457270
      19A     -0.381812    20A     -0.358031    21A     -0.344456

  @DF-RKS Final Energy:  -248.09018873572970

   => Energetics <=

    Nuclear Repulsion Energy =            206.9829300930070133
    One-Electron Energy =                -743.5471167302873710
    Two-Electron Energy =                 315.5186955320099287
    DFT Exchange-Correlation Energy =     -27.0446976304592397
    Empirical Dispersion Energy =           0.0000000000000000
    VV10 Nonlocal Energy =                  0.0000000000000000
    Total Energy =                       -248.0901887357296971
 Dipole X            :         -0.0000000           -0.0000000           -0.0000000
 Dipole Y            :          0.0000000           -0.0000000            0.0000000
 Dipole Z            :        127.9790182         -128.8453640           -0.8663458
 Magnitude           :                                                    0.8663458
  Basis Set: (THIS_BASIS AUX)
    Blend: DEF2-UNIVERSAL-JKFIT
*** Psi4 exiting successfully. Buy a developer a beer!
