                               Psi4 1.9.1 release

  ==> Input File <==

--------------------------------------------------------------------------
#charge=0 charge_a=0 charge_b=0 selection_a=1-2 selection_b=3-13 scaling=1.25 benchmark_Eint=-9.841 benchmark_unit=kcal/mol group=XH-N
set_num_threads(4)
memory 8 GB
basis this_basis {
    assign    def2-qzvp
}

molecule {
     0 1
    --
     0 1
     H        0.00000        0.00000        1.62588
    Cl        0.00000        0.00000        2.99334
    --
     0 1
     H        0.00000       -2.14771       -2.95017
     H        0.00000       -2.05142       -0.45664
     C        0.00000        0.00000       -3.14397
     C        0.00000       -1.19640       -2.43985
     C        0.00000       -1.14931       -1.05392
     N        0.00000        0.00000       -0.38093
     C        0.00000        1.14931       -1.05392
     C        0.00000        1.19640       -2.43985
     H        0.00000        2.05142       -0.45664
     H        0.00000        2.14771       -2.95017
     H        0.00000        0.00000       -4.22455
}

set {
    sapt_dft_functional     PBE0
    scf_type                DF
    freeze_core             true
    sapt_dft_grac_shift_a    0.116251
    sapt_dft_grac_shift_b    0.074627
    sapt_dft_do_hybrid      true
    do_ind_exch_sinf        true
    do_disp_exch_sinf       true
}

nrg = energy('sapt(DFT)')
--------------------------------------------------------------------------

    Molecular point group: c1
  Charge       = 0
  Multiplicity = 1
  Basis Set: THIS_BASIS
    Blend: DEF2-QZVP
  Basis Set: (THIS_BASIS AUX)
    Blend: DEF2-UNIVERSAL-JKFIT
  @DF-RHF Final Energy:  -706.91257468105709
    Total Energy =                       -706.9125746810570945
 Dipole X            :         -0.0000000           -0.0000000           -0.0000000
 Dipole Y            :          0.0000000            0.0000000            0.0000000
 Dipole Z            :          8.1959843          -10.2646863           -2.0687021
 Magnitude           :                                                    2.0687021
    Molecular point group: c1
  Basis Set: THIS_BASIS
    Blend: DEF2-QZVP
  Basis Set: (THIS_BASIS AUX)
    Blend: DEF2-UNIVERSAL-JKFIT
  @DF-RHF Final Energy:  -460.10655595175854
    Total Energy =                       -460.1065559517585370
  Basis Set: THIS_BASIS
    Blend: DEF2-QZVP
  Basis Set: (THIS_BASIS AUX)
    Blend: DEF2-UNIVERSAL-JKFIT
  @DF-RHF Final Energy:  -246.79523732645353
    Total Energy =                       -246.7952373264535026
  Basis Set: (THIS_BASIS AUX)
    Blend: DEF2-UNIVERSAL-JKFIT
  Multiplicity = 1
  Basis Set: THIS_BASIS
    Blend: DEF2-QZVP
  Basis Set: (THIS_BASIS AUX)
    Blend: DEF2-UNIVERSAL-JKFIT
  @DF-RKS Final Energy:  -460.67569075018883
    Total Energy =                       -460.6756907501888350
    Molecular point group: c1

    Geometry (in Angstrom), charge = 0, multiplicity = 1:

       Center              X                  Y                   Z               Mass
    ------------   -----------------  -----------------  -----------------  -----------------
      Gh(H)           0.000000000000     0.000000000000     1.901700698537     1.007825032230
      Gh(CL)          0.000000000000     0.000000000000     3.269160698537    34.968852682000
         H            0.000000000000    -2.147710000000    -2.674349301463     1.007825032230
         H            0.000000000000    -2.051420000000    -0.180819301463     1.007825032230
         C            0.000000000000     0.000000000000    -2.868149301463    12.000000000000
         C            0.000000000000    -1.196400000000    -2.164029301463    12.000000000000
         C            0.000000000000    -1.149310000000    -0.778099301463    12.000000000000
         N            0.000000000000     0.000000000000    -0.105109301463    14.003074004430
         C           -0.000000000000     1.149310000000    -0.778099301463    12.000000000000
         C           -0.000000000000     1.196400000000    -2.164029301463    12.000000000000
         H           -0.000000000000     2.051420000000    -0.180819301463     1.007825032230
         H           -0.000000000000     2.147710000000    -2.674349301463     1.007825032230
         H            0.000000000000     0.000000000000    -3.948729301463     1.007825032230

  Charge       = 0
  Multiplicity = 1
  Basis Set: THIS_BASIS
    Blend: DEF2-QZVP
  Basis Set: (THIS_BASIS AUX)
    Blend: DEF2-UNIVERSAL-JKFIT

    Orbital Energies [Eh]
    ---------------------

    Doubly Occupied:

       1A    -14.458200     2A    -10.338391     3A    -10.338385
       4A    -10.326384     5A    -10.315931     6A    -10.315908
       7A     -1.049683     8A     -0.908554     9A     -0.867394
      10A     -0.730684    11A     -0.727303    12A     -0.627206
      13A     -0.576967    14A     -0.564399    15A     -0.524419
      16A     -0.496358    17A     -0.496321    18A     -0.457270
      19A     -0.381814    20A     -0.358036    21A     -0.344465

  @DF-RKS Final Energy:  -248.09019505832620

   => Energetics <=

    Nuclear Repulsion Energy =            206.9830984834410685
    One-Electron Energy =                -743.5473219688917652
    Two-Electron Energy =                 315.5187240740262382
    DFT Exchange-Correlation Energy =     -27.0446956469017188
    Empirical Dispersion Energy =           0.0000000000000000
    VV10 Nonlocal Energy =                  0.0000000000000000
    Total Energy =                       -248.0901950583262021
 Dipole X            :          0.0000000           -0.0000000            0.0000000
 Dipole Y            :          0.0000000            0.0000000            0.0000000
 Dipole Z            :        118.0147788         -118.8812923           -0.8665135
 Magnitude           :                                                    0.8665135
  Basis Set: (THIS_BASIS AUX)
    Blend: DEF2-UNIVERSAL-JKFIT
*** Psi4 exiting successfully. Buy a developer a beer!
