                               Psi4 1.9.1 release

  ==> Input File <==

--------------------------------------------------------------------------
#charge=0 charge_a=0 charge_b=0 selection_a=1-2 selection_b=3-13 scaling=1.1 benchmark_Eint=-11.550 benchmark_unit=kcal/mol group=XH-N
set_num_threads(4)
memory 8 GB
basis this_basis {
    assign    aug-cc-pVQZ
}

molecule {
     0 1
    --
     0 1
     H        0.00000        0.00000        1.62588
    Cl        0.00000        0.00000        2.99334
    --
     0 1
     H        0.00000       -2.14771       -2.70935
     H        0.00000       -2.05142       -0.21582
     C        0.00000        0.00000       -2.90315
     C        0.00000       -1.19640       -2.19904
}

set {
    scf_type                DF
    freeze_core             true
    sapt_dft_grac_shift_a    0.116251
    sapt_dft_grac_shift_b    0.113162
    sapt_dft_do_hybrid      true
    do_ind_exch_sinf        true
    do_disp_exch_sinf       true
}

nrg = energy('sapt(DFT)')
--------------------------------------------------------------------------

    Molecular point group: c1
  Charge       = 0
  Multiplicity = 1
  Basis Set: THIS_BASIS
    Blend: AUG-CC-PVQZ
  Basis Set: (THIS_BASIS AUX)
    Blend: AUG-CC-PVQZ-JKFIT
  @DF-RHF Final Energy:  -536.69516068789301
    Total Energy =                       -536.6951606878928942
 Dipole X            :         -2.5124822            3.3677363            0.8552540
 Dipole Y            :         -5.0907420            5.2476747            0.1569327
 Dipole Z            :          0.0000000            0.0000000            0.0000000
 Magnitude           :                                                    0.8695328
    Molecular point group: c1
  Basis Set: THIS_BASIS
    Blend: AUG-CC-PVQZ
  Basis Set: (THIS_BASIS AUX)
    Blend: AUG-CC-PVQZ-JKFIT
  @DF-RHF Final Energy:  -460.10578081346097
    Total Energy =                       -460.1057808134610241
  Basis Set: THIS_BASIS
    Blend: AUG-CC-PVQZ
  Basis Set: (THIS_BASIS AUX)
    Blend: AUG-CC-PVQZ-JKFIT
  @DF-RHF Final Energy:   -76.58938530141867
    Total Energy =                        -76.5893853014186732
  Basis Set: (THIS_BASIS AUX)
    Blend: AUG-CC-PVQZ-JKFIT
  Multiplicity = 1
  Basis Set: THIS_BASIS
    Blend: AUG-CC-PVQZ
  Basis Set: (THIS_BASIS AUX)
    Blend: AUG-CC-PVQZ-JKFIT
  @DF-RKS Final Energy:  -460.67323855773282
    Total Energy =                       -460.6732385577328159
    Molecular point group: c1

    Geometry (in Angstrom), charge = 0, multiplicity = 1:

       Center              X                  Y                   Z               Mass
    ------------   -----------------  -----------------  -----------------  -----------------
      Gh(H)          -0.299856272440    -0.946151878620     0.000000000000     1.007825032230
      Gh(CL)         -0.299856272440    -2.313611878620     0.000000000000    34.968852682000
         H            1.847853727560     3.389078121380     0.000000000000     1.007825032230
         H            1.751563727560     0.895548121380     0.000000000000     1.007825032230
         C           -0.299856272440     3.582878121380     0.000000000000    12.000000000000
         C            0.896543727560     2.878768121380     0.000000000000    12.000000000000

  Charge       = 0
  Multiplicity = 1
  Basis Set: THIS_BASIS
    Blend: AUG-CC-PVQZ
  Basis Set: (THIS_BASIS AUX)
    Blend: AUG-CC-PVQZ-JKFIT

    Orbital Energies [Eh]
    ---------------------

    Doubly Occupied:

       1A    -10.436507     2A    -10.409948     3A     -0.892806
       4A     -0.662765     5A     -0.476151     6A     -0.434258
       7A     -0.416799

  @DF-RKS Final Energy:   -77.01428633638290

   => Energetics <=

    Nuclear Repulsion Energy =             20.7577637446868408
    One-Electron Energy =                -143.6425157397802082
    Two-Electron Energy =                  54.2846766648790862
    DFT Exchange-Correlation Energy =      -8.4142110061686086
    Empirical Dispersion Energy =           0.0000000000000000
    VV10 Nonlocal Energy =                  0.0000000000000000
    Total Energy =                        -77.0142863363828951
 Dipole X            :        -12.6705481           13.5673684            0.8968203
 Dipole Y            :        -81.9092734           81.3612205           -0.5480529
 Dipole Z            :          0.0000000            0.0000000            0.0000000
 Magnitude           :                                                    1.0510227
  Basis Set: (THIS_BASIS AUX)
    Blend: AUG-CC-PVQZ-JKFIT
*** Psi4 exiting successfully. Buy a developer a beer!
