                               Psi4 1.9.1 release

  ==> Input File <==

--------------------------------------------------------------------------
#charge=0 charge_a=0 charge_b=0 selection_a=1-2 selection_b=3-13 scaling=0.8 benchmark_Eint=-6.695 benchmark_unit=kcal/mol group=XH-N
set_num_threads(4)
memory 8 GB
basis this_basis {
    assign    aug-cc-pVQZ
}

molecule {
     0 1
    --
     0 1
     H        0.00000        0.00000        1.62588
    Cl        0.00000        0.00000        2.99334
    --
     0 1
     H        0.00000       -2.14771       -2.22772
     H        0.00000       -2.05142        0.26581
     C        0.00000        0.00000       -2.42152
     C        0.00000       -1.19640       -1.71740
}

set {
    scf_type                DF
    freeze_core             true
    sapt_dft_grac_shift_a    0.116251
    sapt_dft_grac_shift_b    0.113162
    sapt_dft_do_hybrid      true
    do_ind_exch_sinf        true
    do_disp_exch_sinf       true
}

nrg = energy('sapt(DFT)')
--------------------------------------------------------------------------

    Molecular point group: c1
  Charge       = 0
  Multiplicity = 1
  Basis Set: THIS_BASIS
    Blend: AUG-CC-PVQZ
  Basis Set: (THIS_BASIS AUX)
    Blend: AUG-CC-PVQZ-JKFIT
  @DF-RHF Final Energy:  -536.69518723429769
    Total Energy =                       -536.6951872342976912
 Dipole X            :         -2.4973601            3.3677363            0.8703762
 Dipole Y            :         -4.5813140            4.7280691            0.1467551
 Dipole Z            :          0.0000000            0.0000000            0.0000000
 Magnitude           :                                                    0.8826618
    Molecular point group: c1
  Basis Set: THIS_BASIS
    Blend: AUG-CC-PVQZ
  Basis Set: (THIS_BASIS AUX)
    Blend: AUG-CC-PVQZ-JKFIT
  @DF-RHF Final Energy:  -460.10578312138904
    Total Energy =                       -460.1057831213890381
  Basis Set: THIS_BASIS
    Blend: AUG-CC-PVQZ
  Basis Set: (THIS_BASIS AUX)
    Blend: AUG-CC-PVQZ-JKFIT
  @DF-RHF Final Energy:   -76.58938631246062
    Total Energy =                        -76.5893863124606185
  Basis Set: (THIS_BASIS AUX)
    Blend: AUG-CC-PVQZ-JKFIT
  Multiplicity = 1
  Basis Set: THIS_BASIS
    Blend: AUG-CC-PVQZ
  Basis Set: (THIS_BASIS AUX)
    Blend: AUG-CC-PVQZ-JKFIT
  @DF-RKS Final Energy:  -460.67324085042452
    Total Energy =                       -460.6732408504245768
    Molecular point group: c1

    Geometry (in Angstrom), charge = 0, multiplicity = 1:

       Center              X                  Y                   Z               Mass
    ------------   -----------------  -----------------  -----------------  -----------------
      Gh(H)          -0.299856272440    -0.744029487196     0.000000000000     1.007825032230
      Gh(CL)         -0.299856272440    -2.111489487196     0.000000000000    34.968852682000
         H            1.847853727560     3.109570512804     0.000000000000     1.007825032230
         H            1.751563727560     0.616040512804     0.000000000000     1.007825032230
         C           -0.299856272440     3.303370512804     0.000000000000    12.000000000000
         C            0.896543727560     2.599250512804     0.000000000000    12.000000000000

  Charge       = 0
  Multiplicity = 1
  Basis Set: THIS_BASIS
    Blend: AUG-CC-PVQZ
  Basis Set: (THIS_BASIS AUX)
    Blend: AUG-CC-PVQZ-JKFIT

    Orbital Energies [Eh]
    ---------------------

    Doubly Occupied:

       1A    -10.436506     2A    -10.409945     3A     -0.892799
       4A     -0.662758     5A     -0.476148     6A     -0.434254
       7A     -0.416793

  @DF-RKS Final Energy:   -77.01428797877679

   => Energetics <=

    Nuclear Repulsion Energy =             20.7577069783357437
    One-Electron Energy =                -143.6424635914128203
    Two-Electron Energy =                  54.2846805785194846
    DFT Exchange-Correlation Energy =      -8.4142119442192076
    Empirical Dispersion Energy =           0.0000000000000000
    VV10 Nonlocal Energy =                  0.0000000000000000
    Total Energy =                        -77.0142879787767924
 Dipole X            :        -12.6705126           13.5673684            0.8968558
 Dipole Y            :        -74.5145973           73.9664075           -0.5481898
 Dipole Z            :          0.0000000            0.0000000            0.0000000
 Magnitude           :                                                    1.0511243
  Basis Set: (THIS_BASIS AUX)
    Blend: AUG-CC-PVQZ-JKFIT
*** Psi4 exiting successfully. Buy a developer a beer!
