                               Psi4 1.9.1 release

  ==> Input File <==

--------------------------------------------------------------------------
#charge=0 charge_a=0 charge_b=0 selection_a=1-2 selection_b=3-13 scaling=2.0 benchmark_Eint=-2.864 benchmark_unit=kcal/mol group=XH-N
set_num_threads(4)
memory 8 GB
basis this_basis {
    assign    def2-qzvp
}

molecule {
     0 1
    --
     0 1
     H        0.00000        0.00000        1.62588
    Cl        0.00000        0.00000        2.99334
    --
     0 1
     H        0.00000       -2.14771       -4.15426
     H        0.00000       -2.05142       -1.66073
     C        0.00000        0.00000       -4.34806
     C        0.00000       -1.19640       -3.64394
     C        0.00000       -1.14931       -2.25801
     N        0.00000        0.00000       -1.58501
     C        0.00000        1.14931       -2.25801
     C        0.00000        1.19640       -3.64394
     H        0.00000        2.05142       -1.66073
     H        0.00000        2.14771       -4.15426
     H        0.00000        0.00000       -5.42863
}

set {
    sapt_dft_functional     PBE0
    scf_type                DF
    freeze_core             true
    sapt_dft_grac_shift_a    0.116251
    sapt_dft_grac_shift_b    0.074627
    sapt_dft_do_hybrid      true
    do_ind_exch_sinf        true
    do_disp_exch_sinf       true
}

nrg = energy('sapt(DFT)')
--------------------------------------------------------------------------

    Molecular point group: c1
  Charge       = 0
  Multiplicity = 1
  Basis Set: THIS_BASIS
    Blend: DEF2-QZVP
  Basis Set: (THIS_BASIS AUX)
    Blend: DEF2-UNIVERSAL-JKFIT
  @DF-RHF Final Energy:  -706.90564802348354
    Total Energy =                       -706.9056480234835362
 Dipole X            :          0.0000000           -0.0000000            0.0000000
 Dipole Y            :          0.0000000           -0.0000000            0.0000000
 Dipole Z            :         10.4140970          -12.0107342           -1.5966372
 Magnitude           :                                                    1.5966372
    Molecular point group: c1
  Basis Set: THIS_BASIS
    Blend: DEF2-QZVP
  Basis Set: (THIS_BASIS AUX)
    Blend: DEF2-UNIVERSAL-JKFIT
  @DF-RHF Final Energy:  -460.10652087817431
    Total Energy =                       -460.1065208781743081
  Basis Set: THIS_BASIS
    Blend: DEF2-QZVP
  Basis Set: (THIS_BASIS AUX)
    Blend: DEF2-UNIVERSAL-JKFIT
  @DF-RHF Final Energy:  -246.79522707708182
    Total Energy =                       -246.7952270770818473
  Basis Set: (THIS_BASIS AUX)
    Blend: DEF2-UNIVERSAL-JKFIT
  Multiplicity = 1
  Basis Set: THIS_BASIS
    Blend: DEF2-QZVP
  Basis Set: (THIS_BASIS AUX)
    Blend: DEF2-UNIVERSAL-JKFIT
  @DF-RKS Final Energy:  -460.67562606312634
    Total Energy =                       -460.6756260631262876
    Molecular point group: c1

    Geometry (in Angstrom), charge = 0, multiplicity = 1:

       Center              X                  Y                   Z               Mass
    ------------   -----------------  -----------------  -----------------  -----------------
      Gh(H)           0.000000000000     0.000000000000     2.729162886190     1.007825032230
      Gh(CL)          0.000000000000     0.000000000000     4.096622886190    34.968852682000
         H            0.000000000000    -2.147710000000    -3.050977113810     1.007825032230
         H            0.000000000000    -2.051420000000    -0.557447113810     1.007825032230
         C            0.000000000000     0.000000000000    -3.244777113810    12.000000000000
         C            0.000000000000    -1.196400000000    -2.540657113810    12.000000000000
         C            0.000000000000    -1.149310000000    -1.154727113810    12.000000000000
         N            0.000000000000     0.000000000000    -0.481727113810    14.003074004430
         C           -0.000000000000     1.149310000000    -1.154727113810    12.000000000000
         C           -0.000000000000     1.196400000000    -2.540657113810    12.000000000000
         H           -0.000000000000     2.051420000000    -0.557447113810     1.007825032230
         H           -0.000000000000     2.147710000000    -3.050977113810     1.007825032230
         H            0.000000000000     0.000000000000    -4.325347113810     1.007825032230

  Charge       = 0
  Multiplicity = 1
  Basis Set: THIS_BASIS
    Blend: DEF2-QZVP
  Basis Set: (THIS_BASIS AUX)
    Blend: DEF2-UNIVERSAL-JKFIT

    Orbital Energies [Eh]
    ---------------------

    Doubly Occupied:

       1A    -14.458186     2A    -10.338381     3A    -10.338375
       4A    -10.326372     5A    -10.315922     6A    -10.315899
       7A     -1.049667     8A     -0.908543     9A     -0.867382
      10A     -0.730672    11A     -0.727293    12A     -0.627196
      13A     -0.576954    14A     -0.564390    15A     -0.524408
      16A     -0.496346    17A     -0.496310    18A     -0.457259
      19A     -0.381803    20A     -0.358026    21A     -0.344445

  @DF-RKS Final Energy:  -248.09018007908492

   => Energetics <=

    Nuclear Repulsion Energy =            206.9829144884706693
    One-Electron Energy =                -743.5473976166982766
    Two-Electron Energy =                 315.5190189739538482
    DFT Exchange-Correlation Energy =     -27.0447159248111575
    Empirical Dispersion Energy =           0.0000000000000000
    VV10 Nonlocal Energy =                  0.0000000000000000
    Total Energy =                       -248.0901800790849165
 Dipole X            :         -0.0000000           -0.0000000           -0.0000000
 Dipole Y            :          0.0000000           -0.0000000            0.0000000
 Dipole Z            :        147.9075153         -148.7735246           -0.8660093
 Magnitude           :                                                    0.8660093
  Basis Set: (THIS_BASIS AUX)
    Blend: DEF2-UNIVERSAL-JKFIT
*** Psi4 exiting successfully. Buy a developer a beer!
