                               Psi4 1.9.1 release

  ==> Input File <==

--------------------------------------------------------------------------
#charge=0 charge_a=0 charge_b=0 selection_a=1-2 selection_b=3-13 scaling=0.85 benchmark_Eint=-9.362 benchmark_unit=kcal/mol group=XH-N
set_num_threads(4)
memory 8 GB
basis this_basis {
    assign    aug-cc-pVQZ
}

molecule {
     0 1
    --
     0 1
     H        0.00000        0.00000        1.62588
    Cl        0.00000        0.00000        2.99334
    --
     0 1
     H        0.00000       -2.14771       -2.30799
     H        0.00000       -2.05142        0.18554
     C        0.00000        0.00000       -2.50179
     C        0.00000       -1.19640       -1.79768
}

set {
    scf_type                DF
    freeze_core             true
    sapt_dft_grac_shift_a    0.116251
    sapt_dft_grac_shift_b    0.113162
    sapt_dft_do_hybrid      true
    do_ind_exch_sinf        true
    do_disp_exch_sinf       true
}

nrg = energy('sapt(DFT)')
--------------------------------------------------------------------------

    Molecular point group: c1
  Charge       = 0
  Multiplicity = 1
  Basis Set: THIS_BASIS
    Blend: AUG-CC-PVQZ
  Basis Set: (THIS_BASIS AUX)
    Blend: AUG-CC-PVQZ-JKFIT
  @DF-RHF Final Energy:  -536.69520415152056
    Total Energy =                       -536.6952041515205565
 Dipole X            :         -2.5007853            3.3677363            0.8669510
 Dipole Y            :         -4.6640611            4.8146652            0.1506041
 Dipole Z            :         -0.0000000            0.0000000           -0.0000000
 Magnitude           :                                                    0.8799350
    Molecular point group: c1
  Basis Set: THIS_BASIS
    Blend: AUG-CC-PVQZ
  Basis Set: (THIS_BASIS AUX)
    Blend: AUG-CC-PVQZ-JKFIT
  @DF-RHF Final Energy:  -460.10578264010434
    Total Energy =                       -460.1057826401042803
  Basis Set: THIS_BASIS
    Blend: AUG-CC-PVQZ
  Basis Set: (THIS_BASIS AUX)
    Blend: AUG-CC-PVQZ-JKFIT
  @DF-RHF Final Energy:   -76.58938620408698
    Total Energy =                        -76.5893862040869777
  Basis Set: (THIS_BASIS AUX)
    Blend: AUG-CC-PVQZ-JKFIT
  Multiplicity = 1
  Basis Set: THIS_BASIS
    Blend: AUG-CC-PVQZ
  Basis Set: (THIS_BASIS AUX)
    Blend: AUG-CC-PVQZ-JKFIT
  @DF-RKS Final Energy:  -460.67324036069920
    Total Energy =                       -460.6732403606991966
    Molecular point group: c1

    Geometry (in Angstrom), charge = 0, multiplicity = 1:

       Center              X                  Y                   Z               Mass
    ------------   -----------------  -----------------  -----------------  -----------------
      Gh(H)          -0.299856272440    -0.777717466104     0.000000000000     1.007825032230
      Gh(CL)         -0.299856272440    -2.145177466104     0.000000000000    34.968852682000
         H            1.847853727560     3.156152533896     0.000000000000     1.007825032230
         H            1.751563727560     0.662622533896     0.000000000000     1.007825032230
         C           -0.299856272440     3.349952533896     0.000000000000    12.000000000000
         C            0.896543727560     2.645842533896     0.000000000000    12.000000000000

  Charge       = 0
  Multiplicity = 1
  Basis Set: THIS_BASIS
    Blend: AUG-CC-PVQZ
  Basis Set: (THIS_BASIS AUX)
    Blend: AUG-CC-PVQZ-JKFIT

    Orbital Energies [Eh]
    ---------------------

    Doubly Occupied:

       1A    -10.436505     2A    -10.409945     3A     -0.892801
       4A     -0.662761     5A     -0.476148     6A     -0.434255
       7A     -0.416795

  @DF-RKS Final Energy:   -77.01428772408339

   => Energetics <=

    Nuclear Repulsion Energy =             20.7577637446868337
    One-Electron Energy =                -143.6425615484288301
    Two-Electron Energy =                  54.2847243819862015
    DFT Exchange-Correlation Energy =      -8.4142143023275935
    Empirical Dispersion Energy =           0.0000000000000000
    VV10 Nonlocal Energy =                  0.0000000000000000
    Total Energy =                        -77.0142877240834025
 Dipole X            :        -12.6705141           13.5673684            0.8968543
 Dipole Y            :        -75.7470653           75.1989025           -0.5481628
 Dipole Z            :         -0.0000000            0.0000000           -0.0000000
 Magnitude           :                                                    1.0511090
  Basis Set: (THIS_BASIS AUX)
    Blend: AUG-CC-PVQZ-JKFIT
*** Psi4 exiting successfully. Buy a developer a beer!
