                               Psi4 1.9.1 release

  ==> Input File <==

--------------------------------------------------------------------------
#charge=0 charge_a=0 charge_b=0 selection_a=1-2 selection_b=3-13 scaling=1.25 benchmark_Eint=-9.841 benchmark_unit=kcal/mol group=XH-N
set_num_threads(4)
memory 8 GB
basis this_basis {
    assign    aug-cc-pVQZ
}

molecule {
     0 1
    --
     0 1
     H        0.00000        0.00000        1.62588
    Cl        0.00000        0.00000        2.99334
    --
     0 1
     H        0.00000       -2.14771       -2.95017
     H        0.00000       -2.05142       -0.45664
     C        0.00000        0.00000       -3.14397
     C        0.00000       -1.19640       -2.43985
}

set {
    scf_type                DF
    freeze_core             true
    sapt_dft_grac_shift_a    0.116251
    sapt_dft_grac_shift_b    0.113162
    sapt_dft_do_hybrid      true
    do_ind_exch_sinf        true
    do_disp_exch_sinf       true
}

nrg = energy('sapt(DFT)')
--------------------------------------------------------------------------

    Molecular point group: c1
  Charge       = 0
  Multiplicity = 1
  Basis Set: THIS_BASIS
    Blend: AUG-CC-PVQZ
  Basis Set: (THIS_BASIS AUX)
    Blend: AUG-CC-PVQZ-JKFIT
  @DF-RHF Final Energy:  -536.69509851446355
    Total Energy =                       -536.6950985144635524
 Dipole X            :         -2.5161309            3.3677363            0.8516054
 Dipole Y            :         -5.3531597            5.5074885            0.1543288
 Dipole Z            :          0.0000000            0.0000000            0.0000000
 Magnitude           :                                                    0.8654763
    Molecular point group: c1
  Basis Set: THIS_BASIS
    Blend: AUG-CC-PVQZ
  Basis Set: (THIS_BASIS AUX)
    Blend: AUG-CC-PVQZ-JKFIT
  @DF-RHF Final Energy:  -460.10578010573886
    Total Energy =                       -460.1057801057388019
  Basis Set: THIS_BASIS
    Blend: AUG-CC-PVQZ
  Basis Set: (THIS_BASIS AUX)
    Blend: AUG-CC-PVQZ-JKFIT
  @DF-RHF Final Energy:   -76.58938467310486
    Total Energy =                        -76.5893846731048598
  Basis Set: (THIS_BASIS AUX)
    Blend: AUG-CC-PVQZ-JKFIT
  Multiplicity = 1
  Basis Set: THIS_BASIS
    Blend: AUG-CC-PVQZ
  Basis Set: (THIS_BASIS AUX)
    Blend: AUG-CC-PVQZ-JKFIT
  @DF-RKS Final Energy:  -460.67323782993674
    Total Energy =                       -460.6732378299367952
    Molecular point group: c1

    Geometry (in Angstrom), charge = 0, multiplicity = 1:

       Center              X                  Y                   Z               Mass
    ------------   -----------------  -----------------  -----------------  -----------------
      Gh(H)          -0.299856272440    -1.047212269042     0.000000000000     1.007825032230
      Gh(CL)         -0.299856272440    -2.414672269042     0.000000000000    34.968852682000
         H            1.847853727560     3.528837730958     0.000000000000     1.007825032230
         H            1.751563727560     1.035307730958     0.000000000000     1.007825032230
         C           -0.299856272440     3.722637730958     0.000000000000    12.000000000000
         C            0.896543727560     3.018517730958     0.000000000000    12.000000000000

  Charge       = 0
  Multiplicity = 1
  Basis Set: THIS_BASIS
    Blend: AUG-CC-PVQZ
  Basis Set: (THIS_BASIS AUX)
    Blend: AUG-CC-PVQZ-JKFIT

    Orbital Energies [Eh]
    ---------------------

    Doubly Occupied:

       1A    -10.436505     2A    -10.409945     3A     -0.892801
       4A     -0.662760     5A     -0.476149     6A     -0.434256
       7A     -0.416795

  @DF-RKS Final Energy:   -77.01428550891850

   => Energetics <=

    Nuclear Repulsion Energy =             20.7577069783357402
    One-Electron Energy =                -143.6424422843107891
    Two-Electron Energy =                  54.2846605419574999
    DFT Exchange-Correlation Energy =      -8.4142107449009469
    Empirical Dispersion Energy =           0.0000000000000000
    VV10 Nonlocal Energy =                  0.0000000000000000
    Total Energy =                        -77.0142855089185048
 Dipole X            :        -12.6705284           13.5673684            0.8968400
 Dipole Y            :        -85.6067698           85.0586105           -0.5481593
 Dipole Z            :          0.0000000            0.0000000            0.0000000
 Magnitude           :                                                    1.0510950
  Basis Set: (THIS_BASIS AUX)
    Blend: AUG-CC-PVQZ-JKFIT
*** Psi4 exiting successfully. Buy a developer a beer!
