                               Psi4 1.9.1 release

  ==> Input File <==

--------------------------------------------------------------------------
#charge=0 charge_a=0 charge_b=0 selection_a=1-2 selection_b=3-13 scaling=1.05 benchmark_Eint=-11.882 benchmark_unit=kcal/mol group=XH-N
set_num_threads(4)
memory 8 GB
basis this_basis {
    assign    aug-cc-pVQZ
}

molecule {
     0 1
    --
     0 1
     H        0.00000        0.00000        1.62588
    Cl        0.00000        0.00000        2.99334
    --
     0 1
     H        0.00000       -2.14771       -2.62908
     H        0.00000       -2.05142       -0.13555
     C        0.00000        0.00000       -2.82288
     C        0.00000       -1.19640       -2.11877
}

set {
    scf_type                DF
    freeze_core             true
    sapt_dft_grac_shift_a    0.116251
    sapt_dft_grac_shift_b    0.113162
    sapt_dft_do_hybrid      true
    do_ind_exch_sinf        true
    do_disp_exch_sinf       true
}

nrg = energy('sapt(DFT)')
--------------------------------------------------------------------------

    Molecular point group: c1
  Charge       = 0
  Multiplicity = 1
  Basis Set: THIS_BASIS
    Blend: AUG-CC-PVQZ
  Basis Set: (THIS_BASIS AUX)
    Blend: AUG-CC-PVQZ-JKFIT
  @DF-RHF Final Energy:  -536.69517906114186
    Total Energy =                       -536.6951790611418573
 Dipole X            :         -2.5107763            3.3677363            0.8569599
 Dipole Y            :         -5.0040888            5.1610750            0.1569862
 Dipole Z            :          0.0000000            0.0000000            0.0000000
 Magnitude           :                                                    0.8712204
    Molecular point group: c1
  Basis Set: THIS_BASIS
    Blend: AUG-CC-PVQZ
  Basis Set: (THIS_BASIS AUX)
    Blend: AUG-CC-PVQZ-JKFIT
  @DF-RHF Final Energy:  -460.10578110320375
    Total Energy =                       -460.1057811032037534
  Basis Set: THIS_BASIS
    Blend: AUG-CC-PVQZ
  Basis Set: (THIS_BASIS AUX)
    Blend: AUG-CC-PVQZ-JKFIT
  @DF-RHF Final Energy:   -76.58938549952862
    Total Energy =                        -76.5893854995286176
  Basis Set: (THIS_BASIS AUX)
    Blend: AUG-CC-PVQZ-JKFIT
  Multiplicity = 1
  Basis Set: THIS_BASIS
    Blend: AUG-CC-PVQZ
  Basis Set: (THIS_BASIS AUX)
    Blend: AUG-CC-PVQZ-JKFIT
  @DF-RKS Final Energy:  -460.67323884199232
    Total Energy =                       -460.6732388419923154
    Molecular point group: c1

    Geometry (in Angstrom), charge = 0, multiplicity = 1:

       Center              X                  Y                   Z               Mass
    ------------   -----------------  -----------------  -----------------  -----------------
      Gh(H)          -0.299856272440    -0.912465835435     0.000000000000     1.007825032230
      Gh(CL)         -0.299856272440    -2.279925835435     0.000000000000    34.968852682000
         H            1.847853727560     3.342494164565     0.000000000000     1.007825032230
         H            1.751563727560     0.848964164565     0.000000000000     1.007825032230
         C           -0.299856272440     3.536294164565     0.000000000000    12.000000000000
         C            0.896543727560     2.832184164565     0.000000000000    12.000000000000

  Charge       = 0
  Multiplicity = 1
  Basis Set: THIS_BASIS
    Blend: AUG-CC-PVQZ
  Basis Set: (THIS_BASIS AUX)
    Blend: AUG-CC-PVQZ-JKFIT

    Orbital Energies [Eh]
    ---------------------

    Doubly Occupied:

       1A    -10.436508     2A    -10.409949     3A     -0.892806
       4A     -0.662765     5A     -0.476151     6A     -0.434258
       7A     -0.416799

  @DF-RKS Final Energy:   -77.01428660847891

   => Energetics <=

    Nuclear Repulsion Energy =             20.7577637446868337
    One-Electron Energy =                -143.6425135630109367
    Two-Electron Energy =                  54.2846742237793904
    DFT Exchange-Correlation Energy =      -8.4142110139341870
    Empirical Dispersion Energy =           0.0000000000000000
    VV10 Nonlocal Energy =                  0.0000000000000000
    Total Energy =                        -77.0142866084789119
 Dipole X            :        -12.6705578           13.5673684            0.8968106
 Dipole Y            :        -80.6768304           80.1287876           -0.5480428
 Dipole Z            :          0.0000000            0.0000000            0.0000000
 Magnitude           :                                                    1.0510091
  Basis Set: (THIS_BASIS AUX)
    Blend: AUG-CC-PVQZ-JKFIT
*** Psi4 exiting successfully. Buy a developer a beer!
