                               Psi4 1.9.1 release

  ==> Input File <==

--------------------------------------------------------------------------
#charge=0 charge_a=0 charge_b=0 selection_a=1-2 selection_b=3-13 scaling=1.0 benchmark_Eint=-11.973 benchmark_unit=kcal/mol group=XH-N
set_num_threads(4)
memory 8 GB
basis this_basis {
    assign    aug-cc-pVQZ
}

molecule {
     0 1
    --
     0 1
     H        0.00000        0.00000        1.62588
    Cl        0.00000        0.00000        2.99334
    --
     0 1
     H        0.00000       -2.14771       -2.54881
     H        0.00000       -2.05142       -0.05528
     C        0.00000        0.00000       -2.74261
     C        0.00000       -1.19640       -2.03849
}

set {
    scf_type                DF
    freeze_core             true
    sapt_dft_grac_shift_a    0.116251
    sapt_dft_grac_shift_b    0.113162
    sapt_dft_do_hybrid      true
    do_ind_exch_sinf        true
    do_disp_exch_sinf       true
}

nrg = energy('sapt(DFT)')
--------------------------------------------------------------------------

    Molecular point group: c1
  Charge       = 0
  Multiplicity = 1
  Basis Set: THIS_BASIS
    Blend: AUG-CC-PVQZ
  Basis Set: (THIS_BASIS AUX)
    Blend: AUG-CC-PVQZ-JKFIT
  @DF-RHF Final Energy:  -536.69519431198012
    Total Energy =                       -536.6951943119801172
 Dipole X            :         -2.5087881            3.3677363            0.8589481
 Dipole Y            :         -4.9179936            5.0744789            0.1564854
 Dipole Z            :         -0.0000000            0.0000000           -0.0000000
 Magnitude           :                                                    0.8730862
    Molecular point group: c1
  Basis Set: THIS_BASIS
    Blend: AUG-CC-PVQZ
  Basis Set: (THIS_BASIS AUX)
    Blend: AUG-CC-PVQZ-JKFIT
  @DF-RHF Final Energy:  -460.10578142777086
    Total Energy =                       -460.1057814277709213
  Basis Set: THIS_BASIS
    Blend: AUG-CC-PVQZ
  Basis Set: (THIS_BASIS AUX)
    Blend: AUG-CC-PVQZ-JKFIT
  @DF-RHF Final Energy:   -76.58938562805272
    Total Energy =                        -76.5893856280527245
  Basis Set: (THIS_BASIS AUX)
    Blend: AUG-CC-PVQZ-JKFIT
  Multiplicity = 1
  Basis Set: THIS_BASIS
    Blend: AUG-CC-PVQZ
  Basis Set: (THIS_BASIS AUX)
    Blend: AUG-CC-PVQZ-JKFIT
  @DF-RKS Final Energy:  -460.67323915758169
    Total Energy =                       -460.6732391575816905
    Molecular point group: c1

    Geometry (in Angstrom), charge = 0, multiplicity = 1:

       Center              X                  Y                   Z               Mass
    ------------   -----------------  -----------------  -----------------  -----------------
      Gh(H)          -0.299856272440    -0.878777856527     0.000000000000     1.007825032230
      Gh(CL)         -0.299856272440    -2.246237856527     0.000000000000    34.968852682000
         H            1.847853727560     3.295912143473     0.000000000000     1.007825032230
         H            1.751563727560     0.802382143473     0.000000000000     1.007825032230
         C           -0.299856272440     3.489712143473     0.000000000000    12.000000000000
         C            0.896543727560     2.785592143473     0.000000000000    12.000000000000

  Charge       = 0
  Multiplicity = 1
  Basis Set: THIS_BASIS
    Blend: AUG-CC-PVQZ
  Basis Set: (THIS_BASIS AUX)
    Blend: AUG-CC-PVQZ-JKFIT

    Orbital Energies [Eh]
    ---------------------

    Doubly Occupied:

       1A    -10.436509     2A    -10.409950     3A     -0.892804
       4A     -0.662763     5A     -0.476152     6A     -0.434258
       7A     -0.416798

  @DF-RKS Final Energy:   -77.01428682800201

   => Energetics <=

    Nuclear Repulsion Energy =             20.7577069783357402
    One-Electron Energy =                -143.6424052004512646
    Two-Electron Energy =                  54.2846195365967290
    DFT Exchange-Correlation Energy =      -8.4142081424831989
    Empirical Dispersion Energy =           0.0000000000000000
    VV10 Nonlocal Energy =                  0.0000000000000000
    Total Energy =                        -77.0142868280020139
 Dipole X            :        -12.6705730           13.5673684            0.8967955
 Dipole Y            :        -79.4443357           78.8962925           -0.5480432
 Dipole Z            :         -0.0000000            0.0000000           -0.0000000
 Magnitude           :                                                    1.0509964
  Basis Set: (THIS_BASIS AUX)
    Blend: AUG-CC-PVQZ-JKFIT
*** Psi4 exiting successfully. Buy a developer a beer!
