                               Psi4 1.9.1 release

  ==> Input File <==

--------------------------------------------------------------------------
#charge=0 charge_a=0 charge_b=0 selection_a=1-2 selection_b=3-13 scaling=0.8 benchmark_Eint=-6.695 benchmark_unit=kcal/mol group=XH-N
set_num_threads(4)
memory 8 GB
basis this_basis {
    assign    def2-qzvp
}

molecule {
     0 1
    --
     0 1
     H        0.00000        0.00000        1.62588
    Cl        0.00000        0.00000        2.99334
    --
     0 1
     H        0.00000       -2.14771       -2.22772
     H        0.00000       -2.05142        0.26581
     C        0.00000        0.00000       -2.42152
     C        0.00000       -1.19640       -1.71740
     C        0.00000       -1.14931       -0.33147
     N        0.00000        0.00000        0.34153
     C       -0.00000        1.14931       -0.33147
     C       -0.00000        1.19640       -1.71740
     H       -0.00000        2.05142        0.26581
     H       -0.00000        2.14771       -2.22772
     H        0.00000        0.00000       -3.50210
}

set {
    sapt_dft_functional     PBE0
    scf_type                DF
    freeze_core             true
    sapt_dft_grac_shift_a    0.116251
    sapt_dft_grac_shift_b    0.074627
    sapt_dft_do_hybrid      true
    do_ind_exch_sinf        true
    do_disp_exch_sinf       true
}

nrg = energy('sapt(DFT)')
--------------------------------------------------------------------------

    Molecular point group: c1
  Charge       = 0
  Multiplicity = 1
  Basis Set: THIS_BASIS
    Blend: DEF2-QZVP
  Basis Set: (THIS_BASIS AUX)
    Blend: DEF2-UNIVERSAL-JKFIT
  @DF-RHF Final Energy:  -706.90100397687286
    Total Energy =                       -706.9010039768728575
 Dipole X            :         -0.0000000           -0.0000000           -0.0000000
 Dipole Y            :         -0.0000000           -0.0000000           -0.0000000
 Dipole Z            :          6.0505797           -9.2170673           -3.1664876
 Magnitude           :                                                    3.1664876
    Molecular point group: c1
  Basis Set: THIS_BASIS
    Blend: DEF2-QZVP
  Basis Set: (THIS_BASIS AUX)
    Blend: DEF2-UNIVERSAL-JKFIT
  @DF-RHF Final Energy:  -460.10658680504019
    Total Energy =                       -460.1065868050402514
  Basis Set: THIS_BASIS
    Blend: DEF2-QZVP
  Basis Set: (THIS_BASIS AUX)
    Blend: DEF2-UNIVERSAL-JKFIT
  @DF-RHF Final Energy:  -246.79525710959751
    Total Energy =                       -246.7952571095975145
  Basis Set: (THIS_BASIS AUX)
    Blend: DEF2-UNIVERSAL-JKFIT
  Multiplicity = 1
  Basis Set: THIS_BASIS
    Blend: DEF2-QZVP
  Basis Set: (THIS_BASIS AUX)
    Blend: DEF2-UNIVERSAL-JKFIT
  @DF-RKS Final Energy:  -460.67573262101695
    Total Energy =                       -460.6757326210169481
    Molecular point group: c1

    Geometry (in Angstrom), charge = 0, multiplicity = 1:

       Center              X                  Y                   Z               Mass
    ------------   -----------------  -----------------  -----------------  -----------------
      Gh(H)           0.000000000000     0.000000000000     1.405224134281     1.007825032230
      Gh(CL)          0.000000000000     0.000000000000     2.772684134281    34.968852682000
         H            0.000000000000    -2.147710000000    -2.448375865719     1.007825032230
         H            0.000000000000    -2.051420000000     0.045154134281     1.007825032230
         C            0.000000000000     0.000000000000    -2.642175865719    12.000000000000
         C            0.000000000000    -1.196400000000    -1.938055865719    12.000000000000
         C            0.000000000000    -1.149310000000    -0.552125865719    12.000000000000
         N            0.000000000000     0.000000000000     0.120874134281    14.003074004430
         C           -0.000000000000     1.149310000000    -0.552125865719    12.000000000000
         C           -0.000000000000     1.196400000000    -1.938055865719    12.000000000000
         H           -0.000000000000     2.051420000000     0.045154134281     1.007825032230
         H           -0.000000000000     2.147710000000    -2.448375865719     1.007825032230
         H            0.000000000000     0.000000000000    -3.722755865719     1.007825032230

  Charge       = 0
  Multiplicity = 1
  Basis Set: THIS_BASIS
    Blend: DEF2-QZVP
  Basis Set: (THIS_BASIS AUX)
    Blend: DEF2-UNIVERSAL-JKFIT

    Orbital Energies [Eh]
    ---------------------

    Doubly Occupied:

       1A    -14.458187     2A    -10.338398     3A    -10.338392
       4A    -10.326393     5A    -10.315941     6A    -10.315918
       7A     -1.049689     8A     -0.908563     9A     -0.867402
      10A     -0.730693    11A     -0.727313    12A     -0.627216
      13A     -0.576976    14A     -0.564408    15A     -0.524429
      16A     -0.496364    17A     -0.496331    18A     -0.457278
      19A     -0.381821    20A     -0.358043    21A     -0.344483

  @DF-RKS Final Energy:  -248.09021920748481

   => Energetics <=

    Nuclear Repulsion Energy =            206.9828667435982652
    One-Electron Energy =                -743.5465775041108145
    Two-Electron Energy =                 315.5181820959076049
    DFT Exchange-Correlation Energy =     -27.0446905428798559
    Empirical Dispersion Energy =           0.0000000000000000
    VV10 Nonlocal Energy =                  0.0000000000000000
    Total Energy =                       -248.0902192074848074
 Dipole X            :          0.0000000           -0.0000000            0.0000000
 Dipole Y            :         -0.0000000           -0.0000000           -0.0000000
 Dipole Z            :        100.0790146         -100.9459880           -0.8669734
 Magnitude           :                                                    0.8669734
  Basis Set: (THIS_BASIS AUX)
    Blend: DEF2-UNIVERSAL-JKFIT
*** Psi4 exiting successfully. Buy a developer a beer!
