                               Psi4 1.9.1 release

  ==> Input File <==

--------------------------------------------------------------------------
#charge=0 charge_a=0 charge_b=0 selection_a=1-2 selection_b=3-13 scaling=1.5 benchmark_Eint=-6.695 benchmark_unit=kcal/mol group=XH-N
set_num_threads(4)
memory 8 GB
basis this_basis {
    assign    aug-cc-pVQZ
}

molecule {
     0 1
    --
     0 1
     H        0.00000        0.00000        1.62588
    Cl        0.00000        0.00000        2.99334
    --
     0 1
     H        0.00000       -2.14771       -3.35153
     H        0.00000       -2.05142       -0.85800
     C        0.00000        0.00000       -3.54533
     C        0.00000       -1.19640       -2.84122
}

set {
    scf_type                DF
    freeze_core             true
    sapt_dft_grac_shift_a    0.116251
    sapt_dft_grac_shift_b    0.113162
    sapt_dft_do_hybrid      true
    do_ind_exch_sinf        true
    do_disp_exch_sinf       true
}

nrg = energy('sapt(DFT)')
--------------------------------------------------------------------------

    Molecular point group: c1
  Charge       = 0
  Multiplicity = 1
  Basis Set: THIS_BASIS
    Blend: AUG-CC-PVQZ
  Basis Set: (THIS_BASIS AUX)
    Blend: AUG-CC-PVQZ-JKFIT
  @DF-RHF Final Energy:  -536.69500852569138
    Total Energy =                       -536.6950085256912644
 Dipole X            :         -2.5186070            3.3677363            0.8491293
 Dipole Y            :         -5.7948591            5.9404944            0.1456353
 Dipole Z            :          0.0000000            0.0000000            0.0000000
 Magnitude           :                                                    0.8615278
    Molecular point group: c1
  Basis Set: THIS_BASIS
    Blend: AUG-CC-PVQZ
  Basis Set: (THIS_BASIS AUX)
    Blend: AUG-CC-PVQZ-JKFIT
  @DF-RHF Final Energy:  -460.10577923160349
    Total Energy =                       -460.1057792316034920
  Basis Set: THIS_BASIS
    Blend: AUG-CC-PVQZ
  Basis Set: (THIS_BASIS AUX)
    Blend: AUG-CC-PVQZ-JKFIT
  @DF-RHF Final Energy:   -76.58938411425856
    Total Energy =                        -76.5893841142585643
  Basis Set: (THIS_BASIS AUX)
    Blend: AUG-CC-PVQZ-JKFIT
  Multiplicity = 1
  Basis Set: THIS_BASIS
    Blend: AUG-CC-PVQZ
  Basis Set: (THIS_BASIS AUX)
    Blend: AUG-CC-PVQZ-JKFIT
  @DF-RKS Final Energy:  -460.67323686850978
    Total Energy =                       -460.6732368685097754
    Molecular point group: c1

    Geometry (in Angstrom), charge = 0, multiplicity = 1:

       Center              X                  Y                   Z               Mass
    ------------   -----------------  -----------------  -----------------  -----------------
      Gh(H)          -0.299856272440    -1.215648617281     0.000000000000     1.007825032230
      Gh(CL)         -0.299856272440    -2.583108617281     0.000000000000    34.968852682000
         H            1.847853727560     3.761761382719     0.000000000000     1.007825032230
         H            1.751563727560     1.268231382719     0.000000000000     1.007825032230
         C           -0.299856272440     3.955561382719     0.000000000000    12.000000000000
         C            0.896543727560     3.251451382719     0.000000000000    12.000000000000

  Charge       = 0
  Multiplicity = 1
  Basis Set: THIS_BASIS
    Blend: AUG-CC-PVQZ
  Basis Set: (THIS_BASIS AUX)
    Blend: AUG-CC-PVQZ-JKFIT

    Orbital Energies [Eh]
    ---------------------

    Doubly Occupied:

       1A    -10.436506     2A    -10.409948     3A     -0.892806
       4A     -0.662765     5A     -0.476151     6A     -0.434258
       7A     -0.416799

  @DF-RKS Final Energy:   -77.01428503874547

   => Energetics <=

    Nuclear Repulsion Energy =             20.7577637446868408
    One-Electron Energy =                -143.6425151301341430
    Two-Electron Energy =                  54.2846772635829993
    DFT Exchange-Correlation Energy =      -8.4142109168811761
    Empirical Dispersion Energy =           0.0000000000000000
    VV10 Nonlocal Energy =                  0.0000000000000000
    Total Energy =                        -77.0142850387454843
 Dipole X            :        -12.6705368           13.5673684            0.8968316
 Dipole Y            :        -91.7690736           91.2209906           -0.5480830
 Dipole Z            :         -0.0000000            0.0000000           -0.0000000
 Magnitude           :                                                    1.0510480
  Basis Set: (THIS_BASIS AUX)
    Blend: AUG-CC-PVQZ-JKFIT
*** Psi4 exiting successfully. Buy a developer a beer!
