                               Psi4 1.9.1 release

  ==> Input File <==

--------------------------------------------------------------------------
#charge=0 charge_a=0 charge_b=0 selection_a=1-2 selection_b=3-13 scaling=2.0 benchmark_Eint=-2.864 benchmark_unit=kcal/mol group=XH-N
set_num_threads(4)
memory 8 GB
basis this_basis {
    assign    aug-cc-pVQZ
}

molecule {
     0 1
    --
     0 1
     H        0.00000        0.00000        1.62588
    Cl        0.00000        0.00000        2.99334
    --
     0 1
     H        0.00000       -2.14771       -4.15426
     H        0.00000       -2.05142       -1.66073
     C        0.00000        0.00000       -4.34806
     C        0.00000       -1.19640       -3.64394
}

set {
    scf_type                DF
    freeze_core             true
    sapt_dft_grac_shift_a    0.116251
    sapt_dft_grac_shift_b    0.113162
    sapt_dft_do_hybrid      true
    do_ind_exch_sinf        true
    do_disp_exch_sinf       true
}

nrg = energy('sapt(DFT)')
--------------------------------------------------------------------------

    Molecular point group: c1
  Charge       = 0
  Multiplicity = 1
  Basis Set: THIS_BASIS
    Blend: AUG-CC-PVQZ
  Basis Set: (THIS_BASIS AUX)
    Blend: AUG-CC-PVQZ-JKFIT
  @DF-RHF Final Energy:  -536.69493642842099
    Total Energy =                       -536.6949364284209878
 Dipole X            :         -2.5170264            3.3677363            0.8507098
 Dipole Y            :         -6.6803173            6.8065280            0.1262107
 Dipole Z            :         -0.0000000            0.0000000           -0.0000000
 Magnitude           :                                                    0.8600211
    Molecular point group: c1
  Basis Set: THIS_BASIS
    Blend: AUG-CC-PVQZ
  Basis Set: (THIS_BASIS AUX)
    Blend: AUG-CC-PVQZ-JKFIT
  @DF-RHF Final Energy:  -460.10577784320492
    Total Energy =                       -460.1057778432049190
  Basis Set: THIS_BASIS
    Blend: AUG-CC-PVQZ
  Basis Set: (THIS_BASIS AUX)
    Blend: AUG-CC-PVQZ-JKFIT
  @DF-RHF Final Energy:   -76.58938319533922
    Total Energy =                        -76.5893831953392237
  Basis Set: (THIS_BASIS AUX)
    Blend: AUG-CC-PVQZ-JKFIT
  Multiplicity = 1
  Basis Set: THIS_BASIS
    Blend: AUG-CC-PVQZ
  Basis Set: (THIS_BASIS AUX)
    Blend: AUG-CC-PVQZ-JKFIT
  @DF-RKS Final Energy:  -460.67323571940307
    Total Energy =                       -460.6732357194030101
    Molecular point group: c1

    Geometry (in Angstrom), charge = 0, multiplicity = 1:

       Center              X                  Y                   Z               Mass
    ------------   -----------------  -----------------  -----------------  -----------------
      Gh(H)          -0.299856272440    -1.552519703181     0.000000000000     1.007825032230
      Gh(CL)         -0.299856272440    -2.919979703181     0.000000000000    34.968852682000
         H            1.847853727560     4.227620296819     0.000000000000     1.007825032230
         H            1.751563727560     1.734090296819     0.000000000000     1.007825032230
         C           -0.299856272440     4.421420296819     0.000000000000    12.000000000000
         C            0.896543727560     3.717300296819     0.000000000000    12.000000000000

  Charge       = 0
  Multiplicity = 1
  Basis Set: THIS_BASIS
    Blend: AUG-CC-PVQZ
  Basis Set: (THIS_BASIS AUX)
    Blend: AUG-CC-PVQZ-JKFIT

    Orbital Energies [Eh]
    ---------------------

    Doubly Occupied:

       1A    -10.436505     2A    -10.409947     3A     -0.892803
       4A     -0.662762     5A     -0.476151     6A     -0.434257
       7A     -0.416797

  @DF-RKS Final Energy:   -77.01428390468635

   => Energetics <=

    Nuclear Repulsion Energy =             20.7577069783357402
    One-Electron Energy =                -143.6424199430417445
    Two-Electron Energy =                  54.2846383500560137
    DFT Exchange-Correlation Energy =      -8.4142092900363590
    Empirical Dispersion Energy =           0.0000000000000000
    VV10 Nonlocal Energy =                  0.0000000000000000
    Total Energy =                        -77.0142839046863514
 Dipole X            :        -12.6705365           13.5673684            0.8968319
 Dipole Y            :       -104.0938462          103.5457179           -0.5481284
 Dipole Z            :          0.0000000            0.0000000            0.0000000
 Magnitude           :                                                    1.0510719
  Basis Set: (THIS_BASIS AUX)
    Blend: AUG-CC-PVQZ-JKFIT
*** Psi4 exiting successfully. Buy a developer a beer!
