                               Psi4 1.9.1 release

  ==> Input File <==

--------------------------------------------------------------------------
#charge=0 charge_a=0 charge_b=0 selection_a=1-2 selection_b=3-13 scaling=0.9 benchmark_Eint=-10.913 benchmark_unit=kcal/mol group=XH-N
set_num_threads(4)
memory 8 GB
basis this_basis {
    assign    def2-qzvp
}

molecule {
     0 1
    --
     0 1
     H        0.00000        0.00000        1.62588
    Cl        0.00000        0.00000        2.99334
    --
     0 1
     H        0.00000       -2.14771       -2.38826
     H        0.00000       -2.05142        0.10527
     C        0.00000        0.00000       -2.58206
     C        0.00000       -1.19640       -1.87795
     C        0.00000       -1.14931       -0.49202
     N        0.00000        0.00000        0.18098
     C       -0.00000        1.14931       -0.49202
     C       -0.00000        1.19640       -1.87795
     H       -0.00000        2.05142        0.10527
     H       -0.00000        2.14771       -2.38826
     H        0.00000        0.00000       -3.66264
}

set {
    sapt_dft_functional     PBE0
    scf_type                DF
    freeze_core             true
    sapt_dft_grac_shift_a    0.116251
    sapt_dft_grac_shift_b    0.074627
    sapt_dft_do_hybrid      true
    do_ind_exch_sinf        true
    do_disp_exch_sinf       true
}

nrg = energy('sapt(DFT)')
--------------------------------------------------------------------------

    Molecular point group: c1
  Charge       = 0
  Multiplicity = 1
  Basis Set: THIS_BASIS
    Blend: DEF2-QZVP
  Basis Set: (THIS_BASIS AUX)
    Blend: DEF2-UNIVERSAL-JKFIT
  @DF-RHF Final Energy:  -706.90900933743967
    Total Energy =                       -706.9090093374396702
 Dipole X            :         -0.0000000           -0.0000000           -0.0000000
 Dipole Y            :          0.0000000           -0.0000000            0.0000000
 Dipole Z            :          6.6151556           -9.4498409           -2.8346853
 Magnitude           :                                                    2.8346853
    Molecular point group: c1
  Basis Set: THIS_BASIS
    Blend: DEF2-QZVP
  Basis Set: (THIS_BASIS AUX)
    Blend: DEF2-UNIVERSAL-JKFIT
  @DF-RHF Final Energy:  -460.10657968340524
    Total Energy =                       -460.1065796834052435
  Basis Set: THIS_BASIS
    Blend: DEF2-QZVP
  Basis Set: (THIS_BASIS AUX)
    Blend: DEF2-UNIVERSAL-JKFIT
  @DF-RHF Final Energy:  -246.79524886765469
    Total Energy =                       -246.7952488676546636
  Basis Set: (THIS_BASIS AUX)
    Blend: DEF2-UNIVERSAL-JKFIT
  Multiplicity = 1
  Basis Set: THIS_BASIS
    Blend: DEF2-QZVP
  Basis Set: (THIS_BASIS AUX)
    Blend: DEF2-UNIVERSAL-JKFIT
  @DF-RKS Final Energy:  -460.67572273560825
    Total Energy =                       -460.6757227356082467
    Molecular point group: c1

    Geometry (in Angstrom), charge = 0, multiplicity = 1:

       Center              X                  Y                   Z               Mass
    ------------   -----------------  -----------------  -----------------  -----------------
      Gh(H)          -0.000000000000     0.000000000000     1.515554325542     1.007825032230
      Gh(CL)         -0.000000000000     0.000000000000     2.883014325542    34.968852682000
         H            0.000000000000    -2.147710000000    -2.498585674458     1.007825032230
         H            0.000000000000    -2.051420000000    -0.005055674458     1.007825032230
         C           -0.000000000000     0.000000000000    -2.692385674458    12.000000000000
         C            0.000000000000    -1.196400000000    -1.988275674458    12.000000000000
         C            0.000000000000    -1.149310000000    -0.602345674458    12.000000000000
         N           -0.000000000000     0.000000000000     0.070654325542    14.003074004430
         C           -0.000000000000     1.149310000000    -0.602345674458    12.000000000000
         C           -0.000000000000     1.196400000000    -1.988275674458    12.000000000000
         H           -0.000000000000     2.051420000000    -0.005055674458     1.007825032230
         H           -0.000000000000     2.147710000000    -2.498585674458     1.007825032230
         H           -0.000000000000     0.000000000000    -3.772965674458     1.007825032230

  Charge       = 0
  Multiplicity = 1
  Basis Set: THIS_BASIS
    Blend: DEF2-QZVP
  Basis Set: (THIS_BASIS AUX)
    Blend: DEF2-UNIVERSAL-JKFIT

    Orbital Energies [Eh]
    ---------------------

    Doubly Occupied:

       1A    -14.458206     2A    -10.338398     3A    -10.338392
       4A    -10.326391     5A    -10.315938     6A    -10.315915
       7A     -1.049689     8A     -0.908562     9A     -0.867401
      10A     -0.730692    11A     -0.727311    12A     -0.627214
      13A     -0.576974    14A     -0.564407    15A     -0.524427
      16A     -0.496363    17A     -0.496327    18A     -0.457278
      19A     -0.381820    20A     -0.358042    21A     -0.344478

  @DF-RKS Final Energy:  -248.09020548578826

   => Energetics <=

    Nuclear Repulsion Energy =            206.9830748982441264
    One-Electron Energy =                -743.5469947513101943
    Two-Electron Energy =                 315.5183987754375039
    DFT Exchange-Correlation Energy =     -27.0446844081597035
    Empirical Dispersion Energy =           0.0000000000000000
    VV10 Nonlocal Energy =                  0.0000000000000000
    Total Energy =                       -248.0902054857882604
 Dipole X            :          0.0000000           -0.0000000            0.0000000
 Dipole Y            :          0.0000000           -0.0000000            0.0000000
 Dipole Z            :        104.0647661         -104.9316509           -0.8668848
 Magnitude           :                                                    0.8668848
  Basis Set: (THIS_BASIS AUX)
    Blend: DEF2-UNIVERSAL-JKFIT
*** Psi4 exiting successfully. Buy a developer a beer!
