                               Psi4 1.9.1 release

  ==> Input File <==

--------------------------------------------------------------------------
#charge=0 charge_a=0 charge_b=0 selection_a=1-2 selection_b=3-6 scaling=0.95 benchmark_Eint=-9.780 benchmark_unit=kcal/mol group=XH-N
set_num_threads(4)
memory 8 GB
basis this_basis {
    assign    def2-qzvp
}

molecule {
     0 1
    --
     0 1
     H        0.00002       -0.93248        0.00000
    Br       -0.00001        0.58174        0.00000
    --
     0 1
     N        0.00003       -2.49629        0.00000
     H       -0.47435       -2.84875        0.82165
     H       -0.47435       -2.84875       -0.82165
     H        0.94878       -2.84876        0.00000
}

set {
    sapt_dft_functional     PBE0
    scf_type                DF
    freeze_core             true
    sapt_dft_grac_shift_a    0.106591
    sapt_dft_grac_shift_b    0.113162
    sapt_dft_do_hybrid      true
    do_ind_exch_sinf        true
    do_disp_exch_sinf       true
}

nrg = energy('sapt(DFT)')
--------------------------------------------------------------------------

    Molecular point group: c1
  Charge       = 0
  Multiplicity = 1
  Basis Set: THIS_BASIS
    Blend: DEF2-QZVP
  Basis Set: (THIS_BASIS AUX)
    Blend: DEF2-UNIVERSAL-JKFIT
  @DF-RHF Final Energy: -2629.27797351874779
    Total Energy =                      -2629.2779735187477854
 Dipole X            :         -0.0001442            0.0001650            0.0000208
 Dipole Y            :         11.5415537          -13.7132365           -2.1716828
 Dipole Z            :          0.0000000            0.0000000            0.0000000
 Magnitude           :                                                    2.1716828
    Molecular point group: c1
  Basis Set: THIS_BASIS
    Blend: DEF2-QZVP
  Basis Set: (THIS_BASIS AUX)
    Blend: DEF2-UNIVERSAL-JKFIT
  @DF-RHF Final Energy: -2573.04624852830466
    Total Energy =                      -2573.0462485283046590
  Basis Set: THIS_BASIS
    Blend: DEF2-QZVP
  Basis Set: (THIS_BASIS AUX)
    Blend: DEF2-UNIVERSAL-JKFIT
  @DF-RHF Final Energy:   -56.22447497392813
    Total Energy =                        -56.2244749739281318
  Basis Set: (THIS_BASIS AUX)
    Blend: DEF2-UNIVERSAL-JKFIT
  Multiplicity = 1
  Basis Set: THIS_BASIS
    Blend: DEF2-QZVP
  Basis Set: (THIS_BASIS AUX)
    Blend: DEF2-UNIVERSAL-JKFIT
  @DF-RKS Final Energy: -2574.50816850057663
    Total Energy =                      -2574.5081685005766303
    Molecular point group: c1

    Geometry (in Angstrom), charge = 0, multiplicity = 1:

       Center              X                  Y                   Z               Mass
    ------------   -----------------  -----------------  -----------------  -----------------
      Gh(H)           0.000022767418    -0.946933527270     0.000000000000     1.007825032230
      Gh(BR)         -0.000007232582     0.567286472730     0.000000000000    78.918337600000
         N            0.000032767418    -2.510743527270     0.000000000000    14.003074004430
         H           -0.474347232582    -2.863203527270     0.821650000000     1.007825032230
         H           -0.474347232582    -2.863203527270    -0.821650000000     1.007825032230
         H            0.948782767418    -2.863213527270     0.000000000000     1.007825032230

  Charge       = 0
  Multiplicity = 1
  Basis Set: THIS_BASIS
    Blend: DEF2-QZVP
  Basis Set: (THIS_BASIS AUX)
    Blend: DEF2-UNIVERSAL-JKFIT

    Orbital Energies [Eh]
    ---------------------

    Doubly Occupied:

       1A    -14.471637     2A     -0.987207     3A     -0.590958
       4A     -0.590958     5A     -0.391657

  @DF-RKS Final Energy:   -56.52023040216692

   => Energetics <=

    Nuclear Repulsion Energy =             11.9458086627415252
    One-Electron Energy =                 -99.6864438908522743
    Two-Electron Energy =                  37.2633485444823336
    DFT Exchange-Correlation Energy =      -6.0429437185385062
    Empirical Dispersion Energy =           0.0000000000000000
    VV10 Nonlocal Energy =                  0.0000000000000000
    Total Energy =                        -56.5202304021669164
 Dipole X            :         -0.0005995            0.0006003            0.0000008
 Dipole Y            :         48.8674361          -49.4443539           -0.5769178
 Dipole Z            :         -0.0000000            0.0000000           -0.0000000
 Magnitude           :                                                    0.5769178
  Basis Set: (THIS_BASIS AUX)
    Blend: DEF2-UNIVERSAL-JKFIT
*** Psi4 exiting successfully. Buy a developer a beer!
