                               Psi4 1.9.1 release

  ==> Input File <==

--------------------------------------------------------------------------
#charge=0 charge_a=0 charge_b=0 selection_a=1-2 selection_b=3-6 scaling=1.25 benchmark_Eint=-8.026 benchmark_unit=kcal/mol group=XH-N
set_num_threads(4)
memory 8 GB
basis this_basis {
    assign    def2-qzvp
}

molecule {
     0 1
    --
     0 1
     H        0.00002       -0.93248        0.00000
    Br       -0.00001        0.58174        0.00000
    --
     0 1
     N        0.00003       -2.99012        0.00000
     H       -0.47435       -3.34259        0.82165
     H       -0.47435       -3.34259       -0.82165
     H        0.94879       -3.34259        0.00000
}

set {
    sapt_dft_functional     PBE0
    scf_type                DF
    freeze_core             true
    sapt_dft_grac_shift_a    0.106591
    sapt_dft_grac_shift_b    0.113162
    sapt_dft_do_hybrid      true
    do_ind_exch_sinf        true
    do_disp_exch_sinf       true
}

nrg = energy('sapt(DFT)')
--------------------------------------------------------------------------

    Molecular point group: c1
  Charge       = 0
  Multiplicity = 1
  Basis Set: THIS_BASIS
    Blend: DEF2-QZVP
  Basis Set: (THIS_BASIS AUX)
    Blend: DEF2-UNIVERSAL-JKFIT
  @DF-RHF Final Energy: -2629.27952889004200
    Total Energy =                      -2629.2795288900424566
 Dipole X            :         -0.0001599            0.0001748            0.0000149
 Dipole Y            :         13.9240744          -15.5065147           -1.5824403
 Dipole Z            :         -0.0000000            0.0000000           -0.0000000
 Magnitude           :                                                    1.5824403
    Molecular point group: c1
  Basis Set: THIS_BASIS
    Blend: DEF2-QZVP
  Basis Set: (THIS_BASIS AUX)
    Blend: DEF2-UNIVERSAL-JKFIT
  @DF-RHF Final Energy: -2573.04622974142649
    Total Energy =                      -2573.0462297414260320
  Basis Set: THIS_BASIS
    Blend: DEF2-QZVP
  Basis Set: (THIS_BASIS AUX)
    Blend: DEF2-UNIVERSAL-JKFIT
  @DF-RHF Final Energy:   -56.22444505740786
    Total Energy =                        -56.2244450574078627
  Basis Set: (THIS_BASIS AUX)
    Blend: DEF2-UNIVERSAL-JKFIT
  Multiplicity = 1
  Basis Set: THIS_BASIS
    Blend: DEF2-QZVP
  Basis Set: (THIS_BASIS AUX)
    Blend: DEF2-UNIVERSAL-JKFIT
  @DF-RKS Final Energy: -2574.50812978587464
    Total Energy =                      -2574.5081297858746439
    Molecular point group: c1

    Geometry (in Angstrom), charge = 0, multiplicity = 1:

       Center              X                  Y                   Z               Mass
    ------------   -----------------  -----------------  -----------------  -----------------
      Gh(H)           0.000022663468    -0.860208352194     0.000000000000     1.007825032230
      Gh(BR)         -0.000007336532     0.654011647806     0.000000000000    78.918337600000
         N            0.000032663468    -2.917848352194     0.000000000000    14.003074004430
         H           -0.474347336532    -3.270318352194     0.821650000000     1.007825032230
         H           -0.474347336532    -3.270318352194    -0.821650000000     1.007825032230
         H            0.948792663468    -3.270318352194     0.000000000000     1.007825032230

  Charge       = 0
  Multiplicity = 1
  Basis Set: THIS_BASIS
    Blend: DEF2-QZVP
  Basis Set: (THIS_BASIS AUX)
    Blend: DEF2-UNIVERSAL-JKFIT

    Orbital Energies [Eh]
    ---------------------

    Doubly Occupied:

       1A    -14.471508     2A     -0.987085     3A     -0.590845
       4A     -0.590845     5A     -0.391507

  @DF-RKS Final Energy:   -56.52017328103887

   => Energetics <=

    Nuclear Repulsion Energy =             11.9457461853529985
    One-Electron Energy =                 -99.6873846116145614
    Two-Electron Energy =                  37.2645326920668651
    DFT Exchange-Correlation Energy =      -6.0430675468441803
    Empirical Dispersion Energy =           0.0000000000000000
    VV10 Nonlocal Energy =                  0.0000000000000000
    Total Energy =                        -56.5201732810388719
 Dipole X            :         -0.0006114            0.0006173            0.0000059
 Dipole Y            :         56.5595981          -57.1375579           -0.5779598
 Dipole Z            :          0.0000000            0.0000000            0.0000000
 Magnitude           :                                                    0.5779598
  Basis Set: (THIS_BASIS AUX)
    Blend: DEF2-UNIVERSAL-JKFIT
*** Psi4 exiting successfully. Buy a developer a beer!
