                               Psi4 1.9.1 release

  ==> Input File <==

--------------------------------------------------------------------------
#charge=0 charge_a=0 charge_b=0 selection_a=1-2 selection_b=3-6 scaling=0.9 benchmark_Eint=-9.272 benchmark_unit=kcal/mol group=XH-N
set_num_threads(4)
memory 8 GB
basis this_basis {
    assign    aug-cc-pVQZ
}

molecule {
     0 1
    --
     0 1
     H        0.00002       -0.93248        0.00000
    Br       -0.00001        0.58174        0.00000
    --
     0 1
     N        0.00003       -2.41398        0.00000
     H       -0.47435       -2.76645        0.82165
     H       -0.47435       -2.76645       -0.82165
     H        0.94878       -2.76645        0.00000
}

set {
    scf_type                DF
    freeze_core             true
    sapt_dft_grac_shift_a    0.116251
    sapt_dft_grac_shift_b    0.113162
    sapt_dft_do_hybrid      true
    do_ind_exch_sinf        true
    do_disp_exch_sinf       true
}

nrg = energy('sapt(DFT)')
--------------------------------------------------------------------------

    Molecular point group: c1
  Charge       = 0
  Multiplicity = 1
  Basis Set: THIS_BASIS
    Blend: AUG-CC-PVQZ
  Basis Set: (THIS_BASIS AUX)
    Blend: AUG-CC-PVQZ-JKFIT
  @DF-RHF Final Energy: -2629.27643745598289
    Total Energy =                      -2629.2764374559828866
 Dipole X            :         -0.0001411            0.0001650            0.0000239
 Dipole Y            :         11.1247545          -13.4143617           -2.2896071
 Dipole Z            :         -0.0000000            0.0000000           -0.0000000
 Magnitude           :                                                    2.2896071
    Molecular point group: c1
  Basis Set: THIS_BASIS
    Blend: AUG-CC-PVQZ
  Basis Set: (THIS_BASIS AUX)
    Blend: AUG-CC-PVQZ-JKFIT
  @DF-RHF Final Energy: -2573.04670384166093
    Total Energy =                      -2573.0467038416609284
  Basis Set: THIS_BASIS
    Blend: AUG-CC-PVQZ
  Basis Set: (THIS_BASIS AUX)
    Blend: AUG-CC-PVQZ-JKFIT
  @DF-RHF Final Energy:   -56.22395485561836
    Total Energy =                        -56.2239548556183593
  Basis Set: (THIS_BASIS AUX)
    Blend: AUG-CC-PVQZ-JKFIT
  Multiplicity = 1
  Basis Set: THIS_BASIS
    Blend: AUG-CC-PVQZ
  Basis Set: (THIS_BASIS AUX)
    Blend: AUG-CC-PVQZ-JKFIT
  @DF-RKS Final Energy: -2574.50502870189075
    Total Energy =                      -2574.5050287018902964
    Molecular point group: c1

    Geometry (in Angstrom), charge = 0, multiplicity = 1:

       Center              X                  Y                   Z               Mass
    ------------   -----------------  -----------------  -----------------  -----------------
      Gh(H)           0.000022767418    -0.961388358650     0.000000000000     1.007825032230
      Gh(BR)         -0.000007232582     0.552831641350     0.000000000000    78.918337600000
         N            0.000032767418    -2.442888358650     0.000000000000    14.003074004430
         H           -0.474347232582    -2.795358358650     0.821650000000     1.007825032230
         H           -0.474347232582    -2.795358358650    -0.821650000000     1.007825032230
         H            0.948782767418    -2.795358358650     0.000000000000     1.007825032230

  Charge       = 0
  Multiplicity = 1
  Basis Set: THIS_BASIS
    Blend: AUG-CC-PVQZ
  Basis Set: (THIS_BASIS AUX)
    Blend: AUG-CC-PVQZ-JKFIT

    Orbital Energies [Eh]
    ---------------------

    Doubly Occupied:

       1A    -14.470371     2A     -0.987658     3A     -0.591364
       4A     -0.591363     5A     -0.392196

  @DF-RKS Final Energy:   -56.51972805537925

   => Energetics <=

    Nuclear Repulsion Energy =             11.9457834769598801
    One-Electron Energy =                 -99.6837978534282030
    Two-Electron Energy =                  37.2619288495532643
    DFT Exchange-Correlation Energy =      -6.0436425284641828
    Empirical Dispersion Energy =           0.0000000000000000
    VV10 Nonlocal Energy =                  0.0000000000000000
    Total Energy =                        -56.5197280553792467
 Dipole X            :         -0.0006001            0.0006003            0.0000003
 Dipole Y            :         47.5980715          -48.1621148           -0.5640434
 Dipole Z            :         -0.0000000            0.0000000           -0.0000000
 Magnitude           :                                                    0.5640434
  Basis Set: (THIS_BASIS AUX)
    Blend: AUG-CC-PVQZ-JKFIT
*** Psi4 exiting successfully. Buy a developer a beer!
