                               Psi4 1.9.1 release

  ==> Input File <==

--------------------------------------------------------------------------
#charge=0 charge_a=0 charge_b=0 selection_a=1-2 selection_b=3-6 scaling=0.85 benchmark_Eint=-8.203 benchmark_unit=kcal/mol group=XH-N
set_num_threads(4)
memory 8 GB
basis this_basis {
    assign    def2-qzvp
}

molecule {
     0 1
    --
     0 1
     H        0.00002       -0.93248        0.00000
    Br       -0.00001        0.58174        0.00000
    --
     0 1
     N        0.00002       -2.33168        0.00000
     H       -0.47435       -2.68414        0.82165
     H       -0.47435       -2.68414       -0.82165
     H        0.94878       -2.68415        0.00000
}

set {
    sapt_dft_functional     PBE0
    scf_type                DF
    freeze_core             true
    sapt_dft_grac_shift_a    0.106591
    sapt_dft_grac_shift_b    0.113162
    sapt_dft_do_hybrid      true
    do_ind_exch_sinf        true
    do_disp_exch_sinf       true
}

nrg = energy('sapt(DFT)')
--------------------------------------------------------------------------

    Molecular point group: c1
  Charge       = 0
  Multiplicity = 1
  Basis Set: THIS_BASIS
    Blend: DEF2-QZVP
  Basis Set: (THIS_BASIS AUX)
    Blend: DEF2-UNIVERSAL-JKFIT
  @DF-RHF Final Energy: -2629.27396987210841
    Total Energy =                      -2629.2739698721084096
 Dipole X            :         -0.0001279            0.0001582            0.0000303
 Dipole Y            :         10.6456609          -13.1154837           -2.4698228
 Dipole Z            :          0.0000000            0.0000000            0.0000000
 Magnitude           :                                                    2.4698228
    Molecular point group: c1
  Basis Set: THIS_BASIS
    Blend: DEF2-QZVP
  Basis Set: (THIS_BASIS AUX)
    Blend: DEF2-UNIVERSAL-JKFIT
  @DF-RHF Final Energy: -2573.04625706679371
    Total Energy =                      -2573.0462570667937143
  Basis Set: THIS_BASIS
    Blend: DEF2-QZVP
  Basis Set: (THIS_BASIS AUX)
    Blend: DEF2-UNIVERSAL-JKFIT
  @DF-RHF Final Energy:   -56.22448682867897
    Total Energy =                        -56.2244868286789696
  Basis Set: (THIS_BASIS AUX)
    Blend: DEF2-UNIVERSAL-JKFIT
  Multiplicity = 1
  Basis Set: THIS_BASIS
    Blend: DEF2-QZVP
  Basis Set: (THIS_BASIS AUX)
    Blend: DEF2-UNIVERSAL-JKFIT
  @DF-RKS Final Energy: -2574.50818576678330
    Total Energy =                      -2574.5081857667837539
    Molecular point group: c1

    Geometry (in Angstrom), charge = 0, multiplicity = 1:

       Center              X                  Y                   Z               Mass
    ------------   -----------------  -----------------  -----------------  -----------------
      Gh(H)           0.000024211738    -0.975841849661     0.000000000000     1.007825032230
      Gh(BR)         -0.000005788262     0.538378150339     0.000000000000    78.918337600000
         N            0.000024211738    -2.375041849661     0.000000000000    14.003074004430
         H           -0.474345788262    -2.727501849661     0.821650000000     1.007825032230
         H           -0.474345788262    -2.727501849661    -0.821650000000     1.007825032230
         H            0.948784211738    -2.727511849661     0.000000000000     1.007825032230

  Charge       = 0
  Multiplicity = 1
  Basis Set: THIS_BASIS
    Blend: DEF2-QZVP
  Basis Set: (THIS_BASIS AUX)
    Blend: DEF2-UNIVERSAL-JKFIT

    Orbital Energies [Eh]
    ---------------------

    Doubly Occupied:

       1A    -14.471701     2A     -0.987256     3A     -0.591008
       4A     -0.591003     5A     -0.391720

  @DF-RKS Final Energy:   -56.52025754700917

   => Energetics <=

    Nuclear Repulsion Energy =             11.9458086626986955
    One-Electron Energy =                 -99.6859813155046197
    Two-Electron Energy =                  37.2628037326550228
    DFT Exchange-Correlation Energy =      -6.0428886268582680
    Empirical Dispersion Energy =           0.0000000000000000
    VV10 Nonlocal Energy =                  0.0000000000000000
    Total Energy =                        -56.5202575470091659
 Dipole X            :         -0.0004942            0.0004953            0.0000011
 Dipole Y            :         46.3042425          -46.8799638           -0.5757213
 Dipole Z            :          0.0000000            0.0000000            0.0000000
 Magnitude           :                                                    0.5757213
  Basis Set: (THIS_BASIS AUX)
    Blend: DEF2-UNIVERSAL-JKFIT
*** Psi4 exiting successfully. Buy a developer a beer!
