                               Psi4 1.9.1 release

  ==> Input File <==

--------------------------------------------------------------------------
#charge=0 charge_a=0 charge_b=0 selection_a=1-2 selection_b=3-6 scaling=1.05 benchmark_Eint=-9.769 benchmark_unit=kcal/mol group=XH-N
set_num_threads(4)
memory 8 GB
basis this_basis {
    assign    def2-qzvp
}

molecule {
     0 1
    --
     0 1
     H        0.00002       -0.93248        0.00000
    Br       -0.00001        0.58174        0.00000
    --
     0 1
     N        0.00003       -2.66090        0.00000
     H       -0.47435       -3.01337        0.82165
     H       -0.47435       -3.01337       -0.82165
     H        0.94878       -3.01337        0.00000
}

set {
    sapt_dft_functional     PBE0
    scf_type                DF
    freeze_core             true
    sapt_dft_grac_shift_a    0.106591
    sapt_dft_grac_shift_b    0.113162
    sapt_dft_do_hybrid      true
    do_ind_exch_sinf        true
    do_disp_exch_sinf       true
}

nrg = energy('sapt(DFT)')
--------------------------------------------------------------------------

    Molecular point group: c1
  Charge       = 0
  Multiplicity = 1
  Basis Set: THIS_BASIS
    Blend: DEF2-QZVP
  Basis Set: (THIS_BASIS AUX)
    Blend: DEF2-UNIVERSAL-JKFIT
  @DF-RHF Final Energy: -2629.27957080504439
    Total Energy =                      -2629.2795708050443864
 Dipole X            :         -0.0001474            0.0001650            0.0000176
 Dipole Y            :         12.3853135          -14.3110091           -1.9256956
 Dipole Z            :          0.0000000            0.0000000            0.0000000
 Magnitude           :                                                    1.9256956
    Molecular point group: c1
  Basis Set: THIS_BASIS
    Blend: DEF2-QZVP
  Basis Set: (THIS_BASIS AUX)
    Blend: DEF2-UNIVERSAL-JKFIT
  @DF-RHF Final Energy: -2573.04624141643490
    Total Energy =                      -2573.0462414164348957
  Basis Set: THIS_BASIS
    Blend: DEF2-QZVP
  Basis Set: (THIS_BASIS AUX)
    Blend: DEF2-UNIVERSAL-JKFIT
  @DF-RHF Final Energy:   -56.22446368948538
    Total Energy =                        -56.2244636894853755
  Basis Set: (THIS_BASIS AUX)
    Blend: DEF2-UNIVERSAL-JKFIT
  Multiplicity = 1
  Basis Set: THIS_BASIS
    Blend: DEF2-QZVP
  Basis Set: (THIS_BASIS AUX)
    Blend: DEF2-UNIVERSAL-JKFIT
  @DF-RKS Final Energy: -2574.50815332018510
    Total Energy =                      -2574.5081533201851016
    Molecular point group: c1

    Geometry (in Angstrom), charge = 0, multiplicity = 1:

       Center              X                  Y                   Z               Mass
    ------------   -----------------  -----------------  -----------------  -----------------
      Gh(H)           0.000022767418    -0.918024996978     0.000000000000     1.007825032230
      Gh(BR)         -0.000007232582     0.596195003022     0.000000000000    78.918337600000
         N            0.000032767418    -2.646444996978     0.000000000000    14.003074004430
         H           -0.474347232582    -2.998914996978     0.821650000000     1.007825032230
         H           -0.474347232582    -2.998914996978    -0.821650000000     1.007825032230
         H            0.948782767418    -2.998914996978     0.000000000000     1.007825032230

  Charge       = 0
  Multiplicity = 1
  Basis Set: THIS_BASIS
    Blend: DEF2-QZVP
  Basis Set: (THIS_BASIS AUX)
    Blend: DEF2-UNIVERSAL-JKFIT

    Orbital Energies [Eh]
    ---------------------

    Doubly Occupied:

       1A    -14.471580     2A     -0.987158     3A     -0.590912
       4A     -0.590910     5A     -0.391597

  @DF-RKS Final Energy:   -56.52020684015382

   => Energetics <=

    Nuclear Repulsion Energy =             11.9457834769598783
    One-Electron Energy =                 -99.6868369812858077
    Two-Electron Energy =                  37.2638408274293127
    DFT Exchange-Correlation Energy =      -6.0429941632571955
    Empirical Dispersion Energy =           0.0000000000000000
    VV10 Nonlocal Energy =                  0.0000000000000000
    Total Energy =                        -56.5202068401538185
 Dipole X            :         -0.0005949            0.0006003            0.0000054
 Dipole Y            :         51.4312219          -52.0087778           -0.5775559
 Dipole Z            :         -0.0000000            0.0000000           -0.0000000
 Magnitude           :                                                    0.5775559
  Basis Set: (THIS_BASIS AUX)
    Blend: DEF2-UNIVERSAL-JKFIT
*** Psi4 exiting successfully. Buy a developer a beer!
