                               Psi4 1.9.1 release

  ==> Input File <==

--------------------------------------------------------------------------
#charge=0 charge_a=0 charge_b=0 selection_a=1-2 selection_b=3-6 scaling=1.1 benchmark_Eint=-9.461 benchmark_unit=kcal/mol group=XH-N
set_num_threads(4)
memory 8 GB
basis this_basis {
    assign    def2-qzvp
}

molecule {
     0 1
    --
     0 1
     H        0.00002       -0.93248        0.00000
    Br       -0.00001        0.58174        0.00000
    --
     0 1
     N        0.00003       -2.74321        0.00000
     H       -0.47435       -3.09567        0.82165
     H       -0.47435       -3.09567       -0.82165
     H        0.94878       -3.09568        0.00000
}

set {
    sapt_dft_functional     PBE0
    scf_type                DF
    freeze_core             true
    sapt_dft_grac_shift_a    0.106591
    sapt_dft_grac_shift_b    0.113162
    sapt_dft_do_hybrid      true
    do_ind_exch_sinf        true
    do_disp_exch_sinf       true
}

nrg = energy('sapt(DFT)')
--------------------------------------------------------------------------

    Molecular point group: c1
  Charge       = 0
  Multiplicity = 1
  Basis Set: THIS_BASIS
    Blend: DEF2-QZVP
  Basis Set: (THIS_BASIS AUX)
    Blend: DEF2-UNIVERSAL-JKFIT
  @DF-RHF Final Energy: -2629.27984831596996
    Total Energy =                      -2629.2798483159704119
 Dipole X            :         -0.0001502            0.0001650            0.0000147
 Dipole Y            :         12.7873375          -14.6098839           -1.8225464
 Dipole Z            :         -0.0000000            0.0000000           -0.0000000
 Magnitude           :                                                    1.8225464
    Molecular point group: c1
  Basis Set: THIS_BASIS
    Blend: DEF2-QZVP
  Basis Set: (THIS_BASIS AUX)
    Blend: DEF2-UNIVERSAL-JKFIT
  @DF-RHF Final Energy: -2573.04623822196299
    Total Energy =                      -2573.0462382219629944
  Basis Set: THIS_BASIS
    Blend: DEF2-QZVP
  Basis Set: (THIS_BASIS AUX)
    Blend: DEF2-UNIVERSAL-JKFIT
  @DF-RHF Final Energy:   -56.22445874330825
    Total Energy =                        -56.2244587433082472
  Basis Set: (THIS_BASIS AUX)
    Blend: DEF2-UNIVERSAL-JKFIT
  Multiplicity = 1
  Basis Set: THIS_BASIS
    Blend: DEF2-QZVP
  Basis Set: (THIS_BASIS AUX)
    Blend: DEF2-UNIVERSAL-JKFIT
  @DF-RKS Final Energy: -2574.50814665802363
    Total Energy =                      -2574.5081466580236338
    Molecular point group: c1

    Geometry (in Angstrom), charge = 0, multiplicity = 1:

       Center              X                  Y                   Z               Mass
    ------------   -----------------  -----------------  -----------------  -----------------
      Gh(H)           0.000022767418    -0.903570165597     0.000000000000     1.007825032230
      Gh(BR)         -0.000007232582     0.610649834403     0.000000000000    78.918337600000
         N            0.000032767418    -2.714300165597     0.000000000000    14.003074004430
         H           -0.474347232582    -3.066760165597     0.821650000000     1.007825032230
         H           -0.474347232582    -3.066760165597    -0.821650000000     1.007825032230
         H            0.948782767418    -3.066770165597     0.000000000000     1.007825032230

  Charge       = 0
  Multiplicity = 1
  Basis Set: THIS_BASIS
    Blend: DEF2-QZVP
  Basis Set: (THIS_BASIS AUX)
    Blend: DEF2-UNIVERSAL-JKFIT

    Orbital Energies [Eh]
    ---------------------

    Doubly Occupied:

       1A    -14.471561     2A     -0.987140     3A     -0.590895
       4A     -0.590895     5A     -0.391573

  @DF-RKS Final Energy:   -56.52019702800223

   => Energetics <=

    Nuclear Repulsion Energy =             11.9458086627415234
    One-Electron Energy =                 -99.6870425082635592
    Two-Electron Energy =                  37.2640521933139794
    DFT Exchange-Correlation Energy =      -6.0430153757941802
    Empirical Dispersion Energy =           0.0000000000000000
    VV10 Nonlocal Energy =                  0.0000000000000000
    Total Energy =                        -56.5201970280022294
 Dipole X            :         -0.0005972            0.0006003            0.0000031
 Dipole Y            :         52.7132688          -53.2910169           -0.5777481
 Dipole Z            :         -0.0000000            0.0000000           -0.0000000
 Magnitude           :                                                    0.5777481
  Basis Set: (THIS_BASIS AUX)
    Blend: DEF2-UNIVERSAL-JKFIT
*** Psi4 exiting successfully. Buy a developer a beer!
