                               Psi4 1.9.1 release

  ==> Input File <==

--------------------------------------------------------------------------
#charge=0 charge_a=0 charge_b=0 selection_a=1-2 selection_b=3-6 scaling=1.25 benchmark_Eint=-8.026 benchmark_unit=kcal/mol group=XH-N
set_num_threads(4)
memory 8 GB
basis this_basis {
    assign    aug-cc-pVQZ
}

molecule {
     0 1
    --
     0 1
     H        0.00002       -0.93248        0.00000
    Br       -0.00001        0.58174        0.00000
    --
     0 1
     N        0.00003       -2.99012        0.00000
     H       -0.47435       -3.34259        0.82165
     H       -0.47435       -3.34259       -0.82165
     H        0.94879       -3.34259        0.00000
}

set {
    scf_type                DF
    freeze_core             true
    sapt_dft_grac_shift_a    0.116251
    sapt_dft_grac_shift_b    0.113162
    sapt_dft_do_hybrid      true
    do_ind_exch_sinf        true
    do_disp_exch_sinf       true
}

nrg = energy('sapt(DFT)')
--------------------------------------------------------------------------

    Molecular point group: c1
  Charge       = 0
  Multiplicity = 1
  Basis Set: THIS_BASIS
    Blend: AUG-CC-PVQZ
  Basis Set: (THIS_BASIS AUX)
    Blend: AUG-CC-PVQZ-JKFIT
  @DF-RHF Final Energy: -2629.27948781695977
    Total Energy =                      -2629.2794878169597723
 Dipole X            :         -0.0001602            0.0001748            0.0000147
 Dipole Y            :         13.9418938          -15.5065147           -1.5646209
 Dipole Z            :          0.0000000            0.0000000            0.0000000
 Magnitude           :                                                    1.5646210
    Molecular point group: c1
  Basis Set: THIS_BASIS
    Blend: AUG-CC-PVQZ
  Basis Set: (THIS_BASIS AUX)
    Blend: AUG-CC-PVQZ-JKFIT
  @DF-RHF Final Energy: -2573.04669977065441
    Total Energy =                      -2573.0466997706544134
  Basis Set: THIS_BASIS
    Blend: AUG-CC-PVQZ
  Basis Set: (THIS_BASIS AUX)
    Blend: AUG-CC-PVQZ-JKFIT
  @DF-RHF Final Energy:   -56.22394451149637
    Total Energy =                        -56.2239445114963701
  Basis Set: (THIS_BASIS AUX)
    Blend: AUG-CC-PVQZ-JKFIT
  Multiplicity = 1
  Basis Set: THIS_BASIS
    Blend: AUG-CC-PVQZ
  Basis Set: (THIS_BASIS AUX)
    Blend: AUG-CC-PVQZ-JKFIT
  @DF-RKS Final Energy: -2574.50498963269320
    Total Energy =                      -2574.5049896326927410
    Molecular point group: c1

    Geometry (in Angstrom), charge = 0, multiplicity = 1:

       Center              X                  Y                   Z               Mass
    ------------   -----------------  -----------------  -----------------  -----------------
      Gh(H)           0.000022663468    -0.860208352194     0.000000000000     1.007825032230
      Gh(BR)         -0.000007336532     0.654011647806     0.000000000000    78.918337600000
         N            0.000032663468    -2.917848352194     0.000000000000    14.003074004430
         H           -0.474347336532    -3.270318352194     0.821650000000     1.007825032230
         H           -0.474347336532    -3.270318352194    -0.821650000000     1.007825032230
         H            0.948792663468    -3.270318352194     0.000000000000     1.007825032230

  Charge       = 0
  Multiplicity = 1
  Basis Set: THIS_BASIS
    Blend: AUG-CC-PVQZ
  Basis Set: (THIS_BASIS AUX)
    Blend: AUG-CC-PVQZ-JKFIT

    Orbital Energies [Eh]
    ---------------------

    Doubly Occupied:

       1A    -14.470266     2A     -0.987668     3A     -0.591370
       4A     -0.591370     5A     -0.392198

  @DF-RKS Final Energy:   -56.51969549079771

   => Energetics <=

    Nuclear Repulsion Energy =             11.9457461853529985
    One-Electron Energy =                 -99.6838056696649062
    Two-Electron Energy =                  37.2620402317787693
    DFT Exchange-Correlation Energy =      -6.0436762382645721
    Empirical Dispersion Energy =           0.0000000000000000
    VV10 Nonlocal Energy =                  0.0000000000000000
    Total Energy =                        -56.5196954907977087
 Dipole X            :         -0.0006102            0.0006173            0.0000071
 Dipole Y            :         56.5735442          -57.1375579           -0.5640137
 Dipole Z            :          0.0000000            0.0000000            0.0000000
 Magnitude           :                                                    0.5640137
  Basis Set: (THIS_BASIS AUX)
    Blend: AUG-CC-PVQZ-JKFIT
*** Psi4 exiting successfully. Buy a developer a beer!
