                               Psi4 1.9.1 release

  ==> Input File <==

--------------------------------------------------------------------------
#charge=0 charge_a=0 charge_b=0 selection_a=1-2 selection_b=3-6 scaling=1.5 benchmark_Eint=-5.459 benchmark_unit=kcal/mol group=XH-N
set_num_threads(4)
memory 8 GB
basis this_basis {
    assign    aug-cc-pVQZ
}

molecule {
     0 1
    --
     0 1
     H        0.00002       -0.93248        0.00000
    Br       -0.00001        0.58174        0.00000
    --
     0 1
     N        0.00003       -3.40165        0.00000
     H       -0.47435       -3.75412        0.82165
     H       -0.47435       -3.75412       -0.82165
     H        0.94879       -3.75412        0.00000
}

set {
    sapt_dft_functional     PBE0
    scf_type                DF
    freeze_core             true
    sapt_dft_grac_shift_a    0.106591
    sapt_dft_grac_shift_b    0.113162
    sapt_dft_do_hybrid      true
    do_ind_exch_sinf        true
    do_disp_exch_sinf       true
}

nrg = energy('sapt(DFT)')
--------------------------------------------------------------------------

    Molecular point group: c1
  Charge       = 0
  Multiplicity = 1
  Basis Set: THIS_BASIS
    Blend: AUG-CC-PVQZ
  Basis Set: (THIS_BASIS AUX)
    Blend: AUG-CC-PVQZ-JKFIT
  @DF-RHF Final Energy: -2629.27745563172402
    Total Energy =                      -2629.2774556317240240
 Dipole X            :         -0.0001634            0.0001748            0.0000114
 Dipole Y            :         15.6709575          -17.0009149           -1.3299574
 Dipole Z            :          0.0000000            0.0000000            0.0000000
 Magnitude           :                                                    1.3299574
    Molecular point group: c1
  Basis Set: THIS_BASIS
    Blend: AUG-CC-PVQZ
  Basis Set: (THIS_BASIS AUX)
    Blend: AUG-CC-PVQZ-JKFIT
  @DF-RHF Final Energy: -2573.04669840036013
    Total Energy =                      -2573.0466984003601283
  Basis Set: THIS_BASIS
    Blend: AUG-CC-PVQZ
  Basis Set: (THIS_BASIS AUX)
    Blend: AUG-CC-PVQZ-JKFIT
  @DF-RHF Final Energy:   -56.22393886193011
    Total Energy =                        -56.2239388619301081
  Basis Set: (THIS_BASIS AUX)
    Blend: AUG-CC-PVQZ-JKFIT
  Multiplicity = 1
  Basis Set: THIS_BASIS
    Blend: AUG-CC-PVQZ
  Basis Set: (THIS_BASIS AUX)
    Blend: AUG-CC-PVQZ-JKFIT
  @DF-RKS Final Energy: -2574.50498849333235
    Total Energy =                      -2574.5049884933323483
    Molecular point group: c1

    Geometry (in Angstrom), charge = 0, multiplicity = 1:

       Center              X                  Y                   Z               Mass
    ------------   -----------------  -----------------  -----------------  -----------------
      Gh(H)           0.000022663468    -0.787936668130     0.000000000000     1.007825032230
      Gh(BR)         -0.000007336532     0.726283331870     0.000000000000    78.918337600000
         N            0.000032663468    -3.257106668130     0.000000000000    14.003074004430
         H           -0.474347336532    -3.609576668130     0.821650000000     1.007825032230
         H           -0.474347336532    -3.609576668130    -0.821650000000     1.007825032230
         H            0.948792663468    -3.609576668130     0.000000000000     1.007825032230

  Charge       = 0
  Multiplicity = 1
  Basis Set: THIS_BASIS
    Blend: AUG-CC-PVQZ
  Basis Set: (THIS_BASIS AUX)
    Blend: AUG-CC-PVQZ-JKFIT

    Orbital Energies [Eh]
    ---------------------

    Doubly Occupied:

       1A    -14.470269     2A     -0.987679     3A     -0.591379
       4A     -0.591379     5A     -0.392208

  @DF-RKS Final Energy:   -56.51968941223956

   => Energetics <=

    Nuclear Repulsion Energy =             11.9457461853529985
    One-Electron Energy =                 -99.6837229503384492
    Two-Electron Energy =                  37.2619520815860739
    DFT Exchange-Correlation Energy =      -6.0436647288401897
    Empirical Dispersion Energy =           0.0000000000000000
    VV10 Nonlocal Energy =                  0.0000000000000000
    Total Energy =                        -56.5196894122395648
 Dipole X            :         -0.0006130            0.0006173            0.0000042
 Dipole Y            :         62.9845992          -63.5486109           -0.5640117
 Dipole Z            :          0.0000000            0.0000000            0.0000000
 Magnitude           :                                                    0.5640117
  Basis Set: (THIS_BASIS AUX)
    Blend: AUG-CC-PVQZ-JKFIT
*** Psi4 exiting successfully. Buy a developer a beer!
