                               Psi4 1.9.1 release

  ==> Input File <==

--------------------------------------------------------------------------
#charge=0 charge_a=0 charge_b=0 selection_a=1-2 selection_b=3-6 scaling=0.8 benchmark_Eint=-6.291 benchmark_unit=kcal/mol group=XH-N
set_num_threads(4)
memory 8 GB
basis this_basis {
    assign    def2-qzvp
}

molecule {
     0 1
    --
     0 1
     H        0.00002       -0.93248        0.00000
    Br       -0.00001        0.58174        0.00000
    --
     0 1
     N        0.00002       -2.24937        0.00000
     H       -0.47436       -2.60184        0.82165
     H       -0.47436       -2.60184       -0.82165
     H        0.94878       -2.60184        0.00000
}

set {
    sapt_dft_functional     PBE0
    scf_type                DF
    freeze_core             true
    sapt_dft_grac_shift_a    0.106591
    sapt_dft_grac_shift_b    0.113162
    sapt_dft_do_hybrid      true
    do_ind_exch_sinf        true
    do_disp_exch_sinf       true
}

nrg = energy('sapt(DFT)')
--------------------------------------------------------------------------

    Molecular point group: c1
  Charge       = 0
  Multiplicity = 1
  Basis Set: THIS_BASIS
    Blend: DEF2-QZVP
  Basis Set: (THIS_BASIS AUX)
    Blend: DEF2-UNIVERSAL-JKFIT
  @DF-RHF Final Energy: -2629.27034605398012
    Total Energy =                      -2629.2703460539801199
 Dipole X            :         -0.0001124            0.0001385            0.0000261
 Dipole Y            :         10.1820285          -12.8166089           -2.6345803
 Dipole Z            :         -0.0000000            0.0000000           -0.0000000
 Magnitude           :                                                    2.6345803
    Molecular point group: c1
  Basis Set: THIS_BASIS
    Blend: DEF2-QZVP
  Basis Set: (THIS_BASIS AUX)
    Blend: DEF2-UNIVERSAL-JKFIT
  @DF-RHF Final Energy: -2573.04626183691425
    Total Energy =                      -2573.0462618369142547
  Basis Set: THIS_BASIS
    Blend: DEF2-QZVP
  Basis Set: (THIS_BASIS AUX)
    Blend: DEF2-UNIVERSAL-JKFIT
  @DF-RHF Final Energy:   -56.22449194467230
    Total Energy =                        -56.2244919446723017
  Basis Set: (THIS_BASIS AUX)
    Blend: DEF2-UNIVERSAL-JKFIT
  Multiplicity = 1
  Basis Set: THIS_BASIS
    Blend: DEF2-QZVP
  Basis Set: (THIS_BASIS AUX)
    Blend: DEF2-UNIVERSAL-JKFIT
  @DF-RKS Final Energy: -2574.50819431956279
    Total Energy =                      -2574.5081943195632448
    Molecular point group: c1

    Geometry (in Angstrom), charge = 0, multiplicity = 1:

       Center              X                  Y                   Z               Mass
    ------------   -----------------  -----------------  -----------------  -----------------
      Gh(H)           0.000024419638    -0.990296681042     0.000000000000     1.007825032230
      Gh(BR)         -0.000005580362     0.523923318958     0.000000000000    78.918337600000
         N            0.000024419638    -2.307186681042     0.000000000000    14.003074004430
         H           -0.474355580362    -2.659656681042     0.821650000000     1.007825032230
         H           -0.474355580362    -2.659656681042    -0.821650000000     1.007825032230
         H            0.948784419638    -2.659656681042     0.000000000000     1.007825032230

  Charge       = 0
  Multiplicity = 1
  Basis Set: THIS_BASIS
    Blend: DEF2-QZVP
  Basis Set: (THIS_BASIS AUX)
    Blend: DEF2-UNIVERSAL-JKFIT

    Orbital Energies [Eh]
    ---------------------

    Doubly Occupied:

       1A    -14.471725     2A     -0.987277     3A     -0.591025
       4A     -0.591025     5A     -0.391751

  @DF-RKS Final Energy:   -56.52027176960777

   => Energetics <=

    Nuclear Repulsion Energy =             11.9457461853529967
    One-Electron Energy =                 -99.6856666451896416
    Two-Electron Energy =                  37.2625099313425707
    DFT Exchange-Correlation Energy =      -6.0428612411137008
    Empirical Dispersion Energy =           0.0000000000000000
    VV10 Nonlocal Energy =                  0.0000000000000000
    Total Energy =                        -56.5202717696077670
 Dipole X            :         -0.0004688            0.0004615           -0.0000074
 Dipole Y            :         45.0226565          -45.5977248           -0.5750683
 Dipole Z            :         -0.0000000            0.0000000           -0.0000000
 Magnitude           :                                                    0.5750683
  Basis Set: (THIS_BASIS AUX)
    Blend: DEF2-UNIVERSAL-JKFIT
*** Psi4 exiting successfully. Buy a developer a beer!
