                               Psi4 1.9.1 release

  ==> Input File <==

--------------------------------------------------------------------------
#charge=0 charge_a=0 charge_b=0 selection_a=1-2 selection_b=3-6 scaling=0.85 benchmark_Eint=-6.872 benchmark_unit=kcal/mol group=XH-N
set_num_threads(4)
memory 8 GB
basis this_basis {
    assign    def2-qzvpp
}

molecule {
     0 1
    --
     0 1
     H       -0.13083        0.13151       -0.43120
     I        0.01507       -0.01526       -2.14801
    --
     0 1
     N       -0.24622        0.24765        0.92821
     H        0.04383       -0.61294        1.37489
     H        0.33778        1.00391        1.26181
     H       -1.20770        0.43998        1.17888
}

set {
    sapt_dft_functional     PBE0
    scf_type                DF
    freeze_core             true
    sapt_dft_grac_shift_a    0.094577
    sapt_dft_grac_shift_b    0.113162
    sapt_dft_do_hybrid      true
    do_ind_exch_sinf        true
    do_disp_exch_sinf       true
}

nrg = energy('sapt(DFT)')
--------------------------------------------------------------------------

    Molecular point group: c1
  Charge       = 0
  Multiplicity = 1
  Basis Set: THIS_BASIS
    Blend: DEF2-QZVPP
  Basis Set: (THIS_BASIS AUX)
    Blend: DEF2-UNIVERSAL-JKFIT
  @DF-RHF Final Energy:  -353.46321124648318
    Total Energy =                       -353.4632112464831835
 Dipole X            :          2.9508907           -3.1800491           -0.2291584
 Dipole Y            :         -2.9691717            3.1997560            0.2305843
 Dipole Z            :        -34.7420259           37.4403794            2.6983535
 Magnitude           :                                                    2.7178657
    Molecular point group: c1
  Basis Set: THIS_BASIS
    Blend: DEF2-QZVPP
  Basis Set: (THIS_BASIS AUX)
    Blend: DEF2-UNIVERSAL-JKFIT
  @DF-RHF Final Energy:  -297.23815025075982
    Total Energy =                       -297.2381502507598157
  Basis Set: THIS_BASIS
    Blend: DEF2-QZVPP
  Basis Set: (THIS_BASIS AUX)
    Blend: DEF2-UNIVERSAL-JKFIT
  @DF-RHF Final Energy:   -56.22434874897536
    Total Energy =                        -56.2243487489753591
  Basis Set: (THIS_BASIS AUX)
    Blend: DEF2-UNIVERSAL-JKFIT
  Multiplicity = 1
  Basis Set: THIS_BASIS
    Blend: DEF2-QZVPP
  Basis Set: (THIS_BASIS AUX)
    Blend: DEF2-UNIVERSAL-JKFIT
  @DF-RKS Final Energy:  -298.31514713262601
    Total Energy =                       -298.3151471326259525
    Molecular point group: c1

    Geometry (in Angstrom), charge = 0, multiplicity = 1:

       Center              X                  Y                   Z               Mass
    ------------   -----------------  -----------------  -----------------  -----------------
      Gh(H)          -0.113582764438     0.114252443555     1.336327653854     1.007825032230
      Gh(I)           0.032317235562    -0.032517556445    -0.380482346146   126.904471900000
         N           -0.228972764438     0.230392443555     2.695737653854    14.003074004430
         H            0.061077235562    -0.630197556445     3.142417653854     1.007825032230
         H            0.355027235562     0.986652443555     3.029337653854     1.007825032230
         H           -1.190452764438     0.422722443555     2.946407653854     1.007825032230

  Charge       = 0
  Multiplicity = 1
  Basis Set: THIS_BASIS
    Blend: DEF2-QZVPP
  Basis Set: (THIS_BASIS AUX)
    Blend: DEF2-UNIVERSAL-JKFIT

    Orbital Energies [Eh]
    ---------------------

    Doubly Occupied:

       1A    -14.471204     2A     -0.986447     3A     -0.591350
       4A     -0.591349     5A     -0.390547

  @DF-RKS Final Energy:   -56.52008619152488

   => Energetics <=

    Nuclear Repulsion Energy =             11.9440252192087630
    One-Electron Energy =                 -99.6856672074549692
    Two-Electron Energy =                  37.2644589990746198
    DFT Exchange-Correlation Energy =      -6.0429032023532958
    Empirical Dispersion Energy =           0.0000000000000000
    VV10 Nonlocal Energy =                  0.0000000000000000
    Total Energy =                        -56.5200861915248751
 Dipole X            :          4.4447436           -4.4921769           -0.0474333
 Dipole Y            :         -4.4723372            4.5200821            0.0477449
 Dipole Z            :        -52.3309482           52.8902719            0.5593237
 Magnitude           :                                                    0.5633582
  Basis Set: (THIS_BASIS AUX)
    Blend: DEF2-UNIVERSAL-JKFIT
*** Psi4 exiting successfully. Buy a developer a beer!
