                               Psi4 1.9.1 release

  ==> Input File <==

--------------------------------------------------------------------------
#charge=0 charge_a=0 charge_b=0 selection_a=1-2 selection_b=3-6 scaling=2.0 benchmark_Eint=-2.095 benchmark_unit=kcal/mol group=XH-N
set_num_threads(4)
memory 8 GB
basis this_basis {
    assign    def2-qzvpp
}

molecule {
     0 1
    --
     0 1
     H       -0.13083        0.13151       -0.43120
     I        0.01507       -0.01526       -2.14801
    --
     0 1
     N       -0.40234        0.40478        2.76742
     H       -0.11229       -0.45581        3.21410
     H        0.18166        1.16104        3.10102
     H       -1.36382        0.59711        3.01808
}

set {
    sapt_dft_functional     PBE0
    scf_type                DF
    freeze_core             true
    sapt_dft_grac_shift_a    0.094577
    sapt_dft_grac_shift_b    0.113162
    sapt_dft_do_hybrid      true
    do_ind_exch_sinf        true
    do_disp_exch_sinf       true
}

nrg = energy('sapt(DFT)')
--------------------------------------------------------------------------

    Molecular point group: c1
  Charge       = 0
  Multiplicity = 1
  Basis Set: THIS_BASIS
    Blend: DEF2-QZVPP
  Basis Set: (THIS_BASIS AUX)
    Blend: DEF2-UNIVERSAL-JKFIT
  @DF-RHF Final Energy:  -353.46515827208634
    Total Energy =                       -353.4651582720863416
 Dipole X            :          4.7997350           -4.8826138           -0.0828788
 Dipole Y            :         -4.8299328            4.9133352            0.0834024
 Dipole Z            :        -56.5213222           57.4978461            0.9765239
 Magnitude           :                                                    0.9835771
    Molecular point group: c1
  Basis Set: THIS_BASIS
    Blend: DEF2-QZVPP
  Basis Set: (THIS_BASIS AUX)
    Blend: DEF2-UNIVERSAL-JKFIT
  @DF-RHF Final Energy:  -297.23812690050181
    Total Energy =                       -297.2381269005017543
  Basis Set: THIS_BASIS
    Blend: DEF2-QZVPP
  Basis Set: (THIS_BASIS AUX)
    Blend: DEF2-UNIVERSAL-JKFIT
  @DF-RHF Final Energy:   -56.22432834387557
    Total Energy =                        -56.2243283438755697
  Basis Set: (THIS_BASIS AUX)
    Blend: DEF2-UNIVERSAL-JKFIT
  Multiplicity = 1
  Basis Set: THIS_BASIS
    Blend: DEF2-QZVPP
  Basis Set: (THIS_BASIS AUX)
    Blend: DEF2-UNIVERSAL-JKFIT
  @DF-RKS Final Energy:  -298.31509358682121
    Total Energy =                       -298.3150935868212059
    Molecular point group: c1

    Geometry (in Angstrom), charge = 0, multiplicity = 1:

       Center              X                  Y                   Z               Mass
    ------------   -----------------  -----------------  -----------------  -----------------
      Gh(H)          -0.095242720216     0.095793750572     1.120268328483     1.007825032230
      Gh(I)           0.050657279784    -0.050976249428    -0.596541671517   126.904471900000
         N           -0.366752720216     0.369063750572     4.318888328483    14.003074004430
         H           -0.076702720216    -0.491526249428     4.765568328483     1.007825032230
         H            0.217247279784     1.125323750572     4.652488328483     1.007825032230
         H           -1.328232720216     0.561393750572     4.569548328483     1.007825032230

  Charge       = 0
  Multiplicity = 1
  Basis Set: THIS_BASIS
    Blend: DEF2-QZVPP
  Basis Set: (THIS_BASIS AUX)
    Blend: DEF2-UNIVERSAL-JKFIT

    Orbital Energies [Eh]
    ---------------------

    Doubly Occupied:

       1A    -14.471025     2A     -0.986280     3A     -0.591209
       4A     -0.591207     5A     -0.390278

  @DF-RKS Final Energy:   -56.52001301319946

   => Energetics <=

    Nuclear Repulsion Energy =             11.9440338461567688
    One-Electron Energy =                 -99.6872169253361164
    Two-Electron Energy =                  37.2663014973293585
    DFT Exchange-Correlation Energy =      -6.0431314313494759
    Empirical Dispersion Energy =           0.0000000000000000
    VV10 Nonlocal Energy =                  0.0000000000000000
    Total Energy =                        -56.5200130131994598
 Dipole X            :          7.0477903           -7.0958407           -0.0480504
 Dipole Y            :         -7.0922307            7.1405900            0.0483593
 Dipole Z            :        -82.9968269           83.5633553            0.5665284
 Magnitude           :                                                    0.5706154
  Basis Set: (THIS_BASIS AUX)
    Blend: DEF2-UNIVERSAL-JKFIT
*** Psi4 exiting successfully. Buy a developer a beer!
