                               Psi4 1.9.1 release

  ==> Input File <==

--------------------------------------------------------------------------
#charge=0 charge_a=0 charge_b=0 selection_a=1-2 selection_b=3-6 scaling=0.9 benchmark_Eint=-7.665 benchmark_unit=kcal/mol group=XH-N
set_num_threads(4)
memory 8 GB
basis this_basis {
    assign    def2-qzvpp
}

molecule {
     0 1
    --
     0 1
     H       -0.13083        0.13151       -0.43120
     I        0.01507       -0.01526       -2.14801
    --
     0 1
     N       -0.25301        0.25448        1.00818
     H        0.03704       -0.60611        1.45486
     H        0.33099        1.01074        1.34177
     H       -1.21449        0.44681        1.25884
}

set {
    sapt_dft_functional     PBE0
    scf_type                DF
    freeze_core             true
    sapt_dft_grac_shift_a    0.094577
    sapt_dft_grac_shift_b    0.113162
    sapt_dft_do_hybrid      true
    do_ind_exch_sinf        true
    do_disp_exch_sinf       true
}

nrg = energy('sapt(DFT)')
--------------------------------------------------------------------------

    Molecular point group: c1
  Charge       = 0
  Multiplicity = 1
  Basis Set: THIS_BASIS
    Blend: DEF2-QZVPP
  Basis Set: (THIS_BASIS AUX)
    Blend: DEF2-UNIVERSAL-JKFIT
  @DF-RHF Final Energy:  -353.46478089622752
    Total Energy =                       -353.4647808962275235
 Dipole X            :          3.0416809           -3.2540974           -0.2124165
 Dipole Y            :         -3.0605024            3.2742405            0.2137381
 Dipole Z            :        -35.8111672           38.3124629            2.5012956
 Magnitude           :                                                    2.5193818
    Molecular point group: c1
  Basis Set: THIS_BASIS
    Blend: DEF2-QZVPP
  Basis Set: (THIS_BASIS AUX)
    Blend: DEF2-UNIVERSAL-JKFIT
  @DF-RHF Final Energy:  -297.23814836186000
    Total Energy =                       -297.2381483618599987
  Basis Set: THIS_BASIS
    Blend: DEF2-QZVPP
  Basis Set: (THIS_BASIS AUX)
    Blend: DEF2-UNIVERSAL-JKFIT
  @DF-RHF Final Energy:   -56.22436391962533
    Total Energy =                        -56.2243639196253184
  Basis Set: (THIS_BASIS AUX)
    Blend: DEF2-UNIVERSAL-JKFIT
  Multiplicity = 1
  Basis Set: THIS_BASIS
    Blend: DEF2-QZVPP
  Basis Set: (THIS_BASIS AUX)
    Blend: DEF2-UNIVERSAL-JKFIT
  @DF-RKS Final Energy:  -298.31514266651203
    Total Energy =                       -298.3151426665120880
    Molecular point group: c1

    Geometry (in Angstrom), charge = 0, multiplicity = 1:

       Center              X                  Y                   Z               Mass
    ------------   -----------------  -----------------  -----------------  -----------------
      Gh(H)          -0.112785115832     0.113450095989     1.326933395432     1.007825032230
      Gh(I)           0.033114884168    -0.033319904011    -0.389876604568   126.904471900000
         N           -0.234965115832     0.236420095989     2.766313395432    14.003074004430
         H            0.055084884168    -0.624169904011     3.212993395432     1.007825032230
         H            0.349034884168     0.992680095989     3.099903395432     1.007825032230
         H           -1.196445115832     0.428750095989     3.016973395432     1.007825032230

  Charge       = 0
  Multiplicity = 1
  Basis Set: THIS_BASIS
    Blend: DEF2-QZVPP
  Basis Set: (THIS_BASIS AUX)
    Blend: DEF2-UNIVERSAL-JKFIT

    Orbital Energies [Eh]
    ---------------------

    Doubly Occupied:

       1A    -14.471226     2A     -0.986458     3A     -0.591360
       4A     -0.591359     5A     -0.390554

  @DF-RKS Final Energy:   -56.52009646485987

   => Energetics <=

    Nuclear Repulsion Energy =             11.9440457310165655
    One-Electron Energy =                 -99.6856190060593121
    Two-Electron Energy =                  37.2643685063648817
    DFT Exchange-Correlation Energy =      -6.0428916961819938
    Empirical Dispersion Energy =           0.0000000000000000
    VV10 Nonlocal Energy =                  0.0000000000000000
    Total Energy =                        -56.5200964648598685
 Dipole X            :          4.5578679           -4.6054159           -0.0475480
 Dipole Y            :         -4.5861310            4.6339882            0.0478572
 Dipole Z            :        -53.6632966           54.2239223            0.5606257
 Magnitude           :                                                    0.5646701
  Basis Set: (THIS_BASIS AUX)
    Blend: DEF2-UNIVERSAL-JKFIT
*** Psi4 exiting successfully. Buy a developer a beer!
