                               Psi4 1.9.1 release

  ==> Input File <==

--------------------------------------------------------------------------
#charge=0 charge_a=0 charge_b=0 selection_a=1-2 selection_b=3-6 scaling=0.8 benchmark_Eint=-5.417 benchmark_unit=kcal/mol group=XH-N
set_num_threads(4)
memory 8 GB
basis this_basis {
    assign    def2-qzvpp
}

molecule {
     0 1
    --
     0 1
     H       -0.13083        0.13151       -0.43120
     I        0.01507       -0.01526       -2.14801
    --
     0 1
     N       -0.23943        0.24082        0.84825
     H        0.05062       -0.61977        1.29493
     H        0.34456        0.99708        1.18184
     H       -1.20091        0.43315        1.09891
}

set {
    sapt_dft_functional     PBE0
    scf_type                DF
    freeze_core             true
    sapt_dft_grac_shift_a    0.094577
    sapt_dft_grac_shift_b    0.113162
    sapt_dft_do_hybrid      true
    do_ind_exch_sinf        true
    do_disp_exch_sinf       true
}

nrg = energy('sapt(DFT)')
--------------------------------------------------------------------------

    Molecular point group: c1
  Charge       = 0
  Multiplicity = 1
  Basis Set: THIS_BASIS
    Blend: DEF2-QZVPP
  Basis Set: (THIS_BASIS AUX)
    Blend: DEF2-UNIVERSAL-JKFIT
  @DF-RHF Final Energy:  -353.46085083773090
    Total Energy =                       -353.4608508377309022
 Dipole X            :          2.8596024           -3.1060150           -0.2464127
 Dipole Y            :         -2.8773285            3.1252715            0.2479431
 Dipole Z            :        -33.6669554           36.5683483            2.9013930
 Magnitude           :                                                    2.9223751
    Molecular point group: c1
  Basis Set: THIS_BASIS
    Blend: DEF2-QZVPP
  Basis Set: (THIS_BASIS AUX)
    Blend: DEF2-UNIVERSAL-JKFIT
  @DF-RHF Final Energy:  -297.23815243018225
    Total Energy =                       -297.2381524301822537
  Basis Set: THIS_BASIS
    Blend: DEF2-QZVPP
  Basis Set: (THIS_BASIS AUX)
    Blend: DEF2-UNIVERSAL-JKFIT
  @DF-RHF Final Energy:   -56.22432668148666
    Total Energy =                        -56.2243266814866587
  Basis Set: (THIS_BASIS AUX)
    Blend: DEF2-UNIVERSAL-JKFIT
  Multiplicity = 1
  Basis Set: THIS_BASIS
    Blend: DEF2-QZVPP
  Basis Set: (THIS_BASIS AUX)
    Blend: DEF2-UNIVERSAL-JKFIT
  @DF-RKS Final Energy:  -298.31515101004732
    Total Energy =                       -298.3151510100473160
    Molecular point group: c1

    Geometry (in Angstrom), charge = 0, multiplicity = 1:

       Center              X                  Y                   Z               Mass
    ------------   -----------------  -----------------  -----------------  -----------------
      Gh(H)          -0.114380343508     0.115054791121     1.345721015675     1.007825032230
      Gh(I)           0.031519656492    -0.031715208879    -0.371088984325   126.904471900000
         N           -0.222980343508     0.224364791121     2.625171015675    14.003074004430
         H            0.067069656492    -0.636225208879     3.071851015675     1.007825032230
         H            0.361009656492     0.980624791121     2.958761015675     1.007825032230
         H           -1.184460343508     0.416694791121     2.875831015675     1.007825032230

  Charge       = 0
  Multiplicity = 1
  Basis Set: THIS_BASIS
    Blend: DEF2-QZVPP
  Basis Set: (THIS_BASIS AUX)
    Blend: DEF2-UNIVERSAL-JKFIT

    Orbital Energies [Eh]
    ---------------------

    Doubly Occupied:

       1A    -14.471155     2A     -0.986425     3A     -0.591332
       4A     -0.591330     5A     -0.390524

  @DF-RKS Final Energy:   -56.52006783039899

   => Energetics <=

    Nuclear Repulsion Energy =             11.9440687773304042
    One-Electron Energy =                 -99.6859530442541057
    Two-Electron Energy =                  37.2647525183575610
    DFT Exchange-Correlation Energy =      -6.0429360818328499
    Empirical Dispersion Energy =           0.0000000000000000
    VV10 Nonlocal Energy =                  0.0000000000000000
    Total Energy =                        -56.5200678303989932
 Dipole X            :          4.3316484           -4.3789555           -0.0473070
 Dipole Y            :         -4.3585493            4.4061760            0.0476266
 Dipole Z            :        -50.9988783           51.5567179            0.5578396
 Magnitude           :                                                    0.5618641
  Basis Set: (THIS_BASIS AUX)
    Blend: DEF2-UNIVERSAL-JKFIT
*** Psi4 exiting successfully. Buy a developer a beer!
