                               Psi4 1.9.1 release

  ==> Input File <==

--------------------------------------------------------------------------
#charge=0 charge_a=0 charge_b=0 selection_a=1-2 selection_b=3-6 scaling=1.25 benchmark_Eint=-6.792 benchmark_unit=kcal/mol group=XH-N
set_num_threads(4)
memory 8 GB
basis this_basis {
    assign    def2-qzvpp
}

molecule {
     0 1
    --
     0 1
     H       -0.13083        0.13151       -0.43120
     I        0.01507       -0.01526       -2.14801
    --
     0 1
     N       -0.30052        0.30230        1.56794
     H       -0.01047       -0.55828        2.01462
     H        0.28347        1.05856        1.90153
     H       -1.26200        0.49463        1.81860
}

set {
    sapt_dft_functional     PBE0
    scf_type                DF
    freeze_core             true
    sapt_dft_grac_shift_a    0.094577
    sapt_dft_grac_shift_b    0.113162
    sapt_dft_do_hybrid      true
    do_ind_exch_sinf        true
    do_disp_exch_sinf       true
}

nrg = energy('sapt(DFT)')
--------------------------------------------------------------------------

    Molecular point group: c1
  Charge       = 0
  Multiplicity = 1
  Basis Set: THIS_BASIS
    Blend: DEF2-QZVPP
  Basis Set: (THIS_BASIS AUX)
    Blend: DEF2-UNIVERSAL-JKFIT
  @DF-RHF Final Energy:  -353.46814942673791
    Total Energy =                       -353.4681494267379094
 Dipole X            :          3.6424315           -3.7722312           -0.1297997
 Dipole Y            :         -3.6651387            3.7957551            0.1306163
 Dipole Z            :        -42.8880782           44.4169183            1.5288401
 Magnitude           :                                                    1.5398899
    Molecular point group: c1
  Basis Set: THIS_BASIS
    Blend: DEF2-QZVPP
  Basis Set: (THIS_BASIS AUX)
    Blend: DEF2-UNIVERSAL-JKFIT
  @DF-RHF Final Energy:  -297.23813922513477
    Total Energy =                       -297.2381392251347734
  Basis Set: THIS_BASIS
    Blend: DEF2-QZVPP
  Basis Set: (THIS_BASIS AUX)
    Blend: DEF2-UNIVERSAL-JKFIT
  @DF-RHF Final Energy:   -56.22438117615583
    Total Energy =                        -56.2243811761558305
  Basis Set: (THIS_BASIS AUX)
    Blend: DEF2-UNIVERSAL-JKFIT
  Multiplicity = 1
  Basis Set: THIS_BASIS
    Blend: DEF2-QZVPP
  Basis Set: (THIS_BASIS AUX)
    Blend: DEF2-UNIVERSAL-JKFIT
  @DF-RKS Final Energy:  -298.31511949402056
    Total Energy =                       -298.3151194940205073
    Molecular point group: c1

    Geometry (in Angstrom), charge = 0, multiplicity = 1:

       Center              X                  Y                   Z               Mass
    ------------   -----------------  -----------------  -----------------  -----------------
      Gh(H)          -0.107203855541     0.107832418751     1.261176137211     1.007825032230
      Gh(I)           0.038696144459    -0.038937581249    -0.455633862789   126.904471900000
         N           -0.276893855541     0.278622418751     3.260316137211    14.003074004430
         H            0.013156144459    -0.581957581249     3.706996137211     1.007825032230
         H            0.307096144459     1.034882418751     3.593906137211     1.007825032230
         H           -1.238373855541     0.470952418751     3.510976137211     1.007825032230

  Charge       = 0
  Multiplicity = 1
  Basis Set: THIS_BASIS
    Blend: DEF2-QZVPP
  Basis Set: (THIS_BASIS AUX)
    Blend: DEF2-UNIVERSAL-JKFIT

    Orbital Energies [Eh]
    ---------------------

    Doubly Occupied:

       1A    -14.471212     2A     -0.986423     3A     -0.591328
       4A     -0.591326     5A     -0.390491

  @DF-RKS Final Energy:   -56.52008925983201

   => Energetics <=

    Nuclear Repulsion Energy =             11.9441026905738124
    One-Electron Energy =                 -99.6860579965294846
    Two-Electron Energy =                  37.2648024159187514
    DFT Exchange-Correlation Energy =      -6.0429363697950960
    Empirical Dispersion Energy =           0.0000000000000000
    VV10 Nonlocal Energy =                  0.0000000000000000
    Total Energy =                        -56.5200892598320124
 Dipole X            :          5.3498691           -5.3977732           -0.0479041
 Dipole Y            :         -5.3833057            5.4315154            0.0482098
 Dipole Z            :        -62.9944528           63.5592212            0.5647684
 Magnitude           :                                                    0.5688429
  Basis Set: (THIS_BASIS AUX)
    Blend: DEF2-UNIVERSAL-JKFIT
*** Psi4 exiting successfully. Buy a developer a beer!
