                               Psi4 1.9.1 release

  ==> Input File <==

--------------------------------------------------------------------------
molecule monomer{
    0 1
    H   -0.130828491   0.131510701  -0.431202063
    I    0.015068266  -0.015261633  -2.148009928
    units angstrom
    Symmetry C1
}

set {
    basis                  def2-qzvpp
}
dft_func = 'pbe0'
set freeze_core TRUE
# get the charge and multiplicity of the monomer
charge = monomer.molecular_charge()
mult   = monomer.multiplicity()

set reference rks
EN, wfn = energy(dft_func, return_wfn=True)

# We need to find the HOMO eigenvalue of this system
nelec_a   = wfn.nalpha()
epsilon_a = wfn.epsilon_a().np  # The .np is need to convert the Psi4 Vector object to an np.array
e_homo    = epsilon_a[nelec_a-1]

# now remove and electron and increase the multiplicity.
monomer.set_molecular_charge(charge+1)
monomer.set_multiplicity(mult+1)
set reference uks
EN1 = energy(dft_func)

IP = EN1 - EN
AC_shift = IP + e_homo

psi4.print_out("\n")
psi4.print_out("%s energies and IP \n\n" % (dft_func))
psi4.print_out("  Num Electrons   Charge     E_int [a.u.]            \n")
psi4.print_out("-----------------------------------------------------\n")
psi4.print_out("    N             %3d   %10.6f \n" % (charge,EN))
psi4.print_out("    N-1           %3d   %10.6f \n" % (charge+1,EN1))
psi4.print_out("-----------------------------------------------------\n")
psi4.print_out("    IP                  %10.6f   a.u. \n" % (IP))
psi4.print_out("    e_HOMO              %10.6f   a.u. \n" % (e_homo))
psi4.print_out("    AC-shift            %10.6f   a.u. \n" % (AC_shift))
psi4.print_out("-----------------------------------------------------\n")
--------------------------------------------------------------------------

    Molecular point group: c1
  Charge       = 0
  Multiplicity = 1
  Basis Set: DEF2-QZVPP
    Blend: DEF2-QZVPP
  Basis Set: (DEF2-QZVPP AUX)
    Blend: DEF2-UNIVERSAL-JKFIT
  @DF-RKS Final Energy:  -298.31508955333618
    Total Energy =                       -298.3150895533361791
 Dipole X            :          0.0000127            0.0000000            0.0000127
 Dipole Y            :         -0.0000026            0.0000000           -0.0000026
 Dipole Z            :         -2.4056284            2.5983615            0.1927331
 Magnitude           :                                                    0.1927331
    Molecular point group: c1

    Geometry (in Angstrom), charge = 1, multiplicity = 2:

       Center              X                  Y                   Z               Mass
    ------------   -----------------  -----------------  -----------------  -----------------
         H            0.000000000000     0.000000000000     1.715611318789     1.007825032230
         I           -0.000000000000    -0.000000000000    -0.013624705314   126.904471900000

  Charge       = 1
  Multiplicity = 2
  Basis Set: DEF2-QZVPP
    Blend: DEF2-QZVPP
  Basis Set: (DEF2-QZVPP AUX)
    Blend: DEF2-UNIVERSAL-JKFIT

    Orbital Energies [Eh]
    ---------------------

    Alpha Occupied:

       1A     -7.250944     2A     -5.268369     3A     -5.258713
       4A     -5.246367     5A     -2.295829     6A     -2.294726
       7A     -2.283960     8A     -2.276534     9A     -2.274880
      10A     -1.051921    11A     -0.699099    12A     -0.631722
      13A     -0.586501

    Alpha Virtual:

      14A     -0.314306    15A     -0.141871    16A     -0.116591
      17A     -0.096793    18A     -0.087884    19A     -0.085422
      20A     -0.080720    21A     -0.071388    22A     -0.058181
      23A      0.024252    24A      0.077472    25A      0.212344
      26A      0.230840    27A      0.304411    28A      0.305337
      29A      0.311063    30A      0.311139    31A      0.364369
      32A      0.470116    33A      0.483833    34A      0.498805
      35A      0.507461    36A      0.507531    37A      0.510473
      38A      0.522582    39A      0.527597    40A      0.547096
      41A      0.567104    42A      0.590378    43A      0.809507
      44A      0.933463    45A      0.938508    46A      0.943153
      47A      0.943430    48A      0.954018    49A      0.978918
      50A      0.999070    51A      1.109380    52A      1.382003
      53A      1.382411    54A      1.492707    55A      1.503980
      56A      1.512465    57A      1.512489    58A      1.516330
      59A      1.527787    60A      1.755349    61A      1.921339
      62A      1.922227    63A      2.020397    64A      2.031943
      65A      2.216398    66A      2.257099    67A      2.262805
      68A      2.262942    69A      2.276666    70A      2.454364
      71A      2.506888    72A      2.507576    73A      2.526502
      74A      2.739449    75A      2.772693    76A      2.814068
      77A      2.897087    78A      2.929107    79A      2.929263
      80A      2.929357    81A      2.934407    82A      3.025313
      83A      3.045748    84A      3.577972    85A      5.326855
      86A      5.489189    87A      5.489203    88A      5.593110
      89A      5.593153    90A      5.856288    91A      5.862470
      92A      5.971540    93A      7.270103    94A      7.273289
      95A      7.591782    96A      7.591912    97A      7.906579
      98A      8.027157    99A      8.030598   100A      8.599953
     101A     11.082625   102A     11.082654   103A     11.085054
     104A     11.085263   105A     11.176907   106A     11.192243
     107A     11.449588   108A     13.731769   109A     39.281777
     110A     39.293038   111A     39.373468   112A     78.122110

    Beta Occupied:

       1A     -7.246488     2A     -5.257791     3A     -5.257162
       4A     -5.245024     5A     -2.287328     6A     -2.287003
       7A     -2.276654     8A     -2.275622     9A     -2.272576
      10A     -1.010529    11A     -0.690330    12A     -0.572747

    Beta Virtual:

      13A     -0.480419    14A     -0.306269    15A     -0.127659
      16A     -0.093464    17A     -0.086740    18A     -0.076814
      19A     -0.058516    20A     -0.054960    21A     -0.054729
      22A     -0.049437    23A      0.027497    24A      0.088016
      25A      0.233086    26A      0.234122    27A      0.328940
      28A      0.330997    29A      0.344400    30A      0.344735
      31A      0.374565    32A      0.483600    33A      0.512546
      34A      0.515951    35A      0.526857    36A      0.529786
      37A      0.536143    38A      0.541674    39A      0.545756
      40A      0.570299    41A      0.570475    42A      0.597478
      43A      0.812469    44A      0.949092    45A      0.949781
      46A      0.956617    47A      0.960033    48A      0.960351
      49A      0.994478    50A      1.000811    51A      1.119186
      52A      1.398040    53A      1.399551    54A      1.522789
      55A      1.523537    56A      1.543234    57A      1.543517
      58A      1.553751    59A      1.553953    60A      1.767823
      61A      1.929239    62A      1.930304    63A      2.027515
      64A      2.029166    65A      2.221643    66A      2.275010
      67A      2.278118    68A      2.286156    69A      2.287927
      70A      2.464248    71A      2.516974    72A      2.524232
      73A      2.527319    74A      2.773005    75A      2.778589
      76A      2.817983    77A      2.911959    78A      2.942916
      79A      2.944117    80A      2.949362    81A      2.949450
      82A      3.042665    83A      3.047654    84A      3.580917
      85A      5.323570    86A      5.484615    87A      5.484627
      88A      5.589567    89A      5.589708    90A      5.855291
      91A      5.857562    92A      5.967572    93A      7.264391
      94A      7.265934    95A      7.585196    96A      7.585358
      97A      7.901175    98A      8.022191    99A      8.023603
     100A      8.594015   101A     11.090524   102A     11.090573
     103A     11.090595   104A     11.090708   105A     11.184077
     106A     11.192837   107A     11.453032   108A     13.740077
     109A     39.290823   110A     39.294005   111A     39.374658
     112A     78.124904

    Final Occupation by Irrep:
              A
    DOCC [    12 ]
    SOCC [     1 ]
    NA   [    13 ]
    NB   [    12 ]

  @DF-UKS Final Energy:  -297.92899877954756

   => Energetics <=

    Nuclear Repulsion Energy =              7.6504479911062031
    One-Electron Energy =                -525.2271875797200664
    Two-Electron Energy =                 236.6197446236319308
    DFT Exchange-Correlation Energy =     -16.9720038145655181
    Empirical Dispersion Energy =           0.0000000000000000
    VV10 Nonlocal Energy =                  0.0000000000000000
    Total Energy =                       -297.9289987795474985

  UHF NO Occupations:
  HONO-2 :   11  A 1.9992560
  HONO-1 :   12  A 1.9988502
  HONO-0 :   13  A 1.0000000
  LUNO+0 :   14  A 0.0011498
  LUNO+1 :   15  A 0.0007440
  LUNO+2 :   16  A 0.0004337
  LUNO+3 :   17  A 0.0000137

Computation Completed

Properties will be evaluated at   0.000000,   0.000000,   0.000000 [a0]

Properties computed using the SCF density matrix

 Multipole Moments:

 ------------------------------------------------------------------------------------
     Multipole            Electronic (a.u.)      Nuclear  (a.u.)        Total (a.u.)
 ------------------------------------------------------------------------------------

 L = 1.  Multiply by 2.5417464519 to convert [e a0] to [Debye]
 Dipole X            :         -0.0000167            0.0000000           -0.0000167
 Dipole Y            :         -0.0000028            0.0000000           -0.0000028
 Dipole Z            :         -2.1022713            2.5983615            0.4960902
 Magnitude           :                                                    0.4960902

 ------------------------------------------------------------------------------------

*** tstop() called on cmpsrv002 at Wed Sep 18 15:29:56 2024
Module time:
	user time   =       9.19 seconds =       0.15 minutes
	system time =       0.41 seconds =       0.01 minutes
	total time  =          1 seconds =       0.02 minutes
Total time:
	user time   =      17.72 seconds =       0.30 minutes
	system time =       1.05 seconds =       0.02 minutes
	total time  =          2 seconds =       0.03 minutes

pbe0 energies and IP

  Num Electrons   Charge     E_int [a.u.]
-----------------------------------------------------
    N               0   -298.315090
    N-1             1   -297.928999
-----------------------------------------------------
    IP                    0.386091   a.u.
    e_HOMO               -0.291513   a.u.
    AC-shift              0.094577   a.u.
-----------------------------------------------------

    Psi4 stopped on: Wednesday, 18 September 2024 03:29PM
    Psi4 wall time for execution: 0:00:02.40

*** Psi4 exiting successfully. Buy a developer a beer!
