                               Psi4 1.9.1 release

  ==> Input File <==

--------------------------------------------------------------------------
molecule {
    0 1
    H    0.000000216  -0.312689967   0.000000000
   Cl   -0.000001282   1.030655196   0.000000000
    --
    0 1
    N    0.000002238  -1.690125077   0.000000000
    H   -0.473181893  -2.049133129   0.819577485
    H   -0.473181893  -2.049133129  -0.819577485
    H    0.946368414  -2.049134909   0.000000000
    units angstrom
}

set {
    basis                  aug-cc-pVQZ
    sapt_dft_grac_shift_a  0.116251
    sapt_dft_grac_shift_b  0.113162
    sapt_dft_do_hybrid     true
    do_ind_exch_sinf       true
    do_disp_exch_sinf      true
}

energy('sapt(dft)')
--------------------------------------------------------------------------

    Molecular point group: c1
  Charge       = 0
  Multiplicity = 1
  Basis Set: AUG-CC-PVQZ
    Blend: AUG-CC-PVQZ
  Basis Set: (AUG-CC-PVQZ AUX)
    Blend: AUG-CC-PVQZ-JKFIT
  @DF-RHF Final Energy:  -516.33094713309947
    Total Energy =                       -516.3309471330994711
 Dipole X            :         -0.0000046            0.0000062            0.0000016
 Dipole Y            :          5.0328546           -7.3079515           -2.2750969
 Dipole Z            :          0.0000000            0.0000000            0.0000000
 Magnitude           :                                                    2.2750969
    Molecular point group: c1
  Basis Set: AUG-CC-PVQZ
    Blend: AUG-CC-PVQZ
  Basis Set: (AUG-CC-PVQZ AUX)
    Blend: AUG-CC-PVQZ-JKFIT
  @DF-RHF Final Energy:  -460.10803410205978
    Total Energy =                       -460.1080341020597189
  Basis Set: AUG-CC-PVQZ
    Blend: AUG-CC-PVQZ
  Basis Set: (AUG-CC-PVQZ AUX)
    Blend: AUG-CC-PVQZ-JKFIT
  @DF-RHF Final Energy:   -56.22399468894167
    Total Energy =                        -56.2239946889416657
  Basis Set: (AUG-CC-PVQZ AUX)
    Blend: AUG-CC-PVQZ-JKFIT
  Multiplicity = 1
  Basis Set: AUG-CC-PVQZ
    Blend: AUG-CC-PVQZ
  Basis Set: (AUG-CC-PVQZ AUX)
    Blend: AUG-CC-PVQZ-JKFIT
  @DF-RKS Final Energy:  -460.67503592946338
    Total Energy =                       -460.6750359294633199
    Molecular point group: c1

    Geometry (in Angstrom), charge = 0, multiplicity = 1:

       Center              X                  Y                   Z               Mass
    ------------   -----------------  -----------------  -----------------  -----------------
      Gh(H)           0.000000378429    -0.423310432618     0.000000000000     1.007825032230
      Gh(CL)         -0.000001119571     0.920034730382     0.000000000000    34.968852682000
         N            0.000002400429    -1.800745542618     0.000000000000    14.003074004430
         H           -0.473181730571    -2.159753594618     0.819577485000     1.007825032230
         H           -0.473181730571    -2.159753594618    -0.819577485000     1.007825032230
         H            0.946368576429    -2.159755374618     0.000000000000     1.007825032230

  Charge       = 0
  Multiplicity = 1
  Basis Set: AUG-CC-PVQZ
    Blend: AUG-CC-PVQZ
  Basis Set: (AUG-CC-PVQZ AUX)
    Blend: AUG-CC-PVQZ-JKFIT

    Orbital Energies [Eh]
    ---------------------

    Doubly Occupied:

       1A    -14.470684     2A     -0.988319     3A     -0.590825
       4A     -0.590825     5A     -0.393234

  @DF-RKS Final Energy:   -56.51979520328902

   => Energetics <=

    Nuclear Repulsion Energy =             11.9475631200079526
    One-Electron Energy =                 -99.6855160328715755
    Two-Electron Energy =                  37.2619377082875829
    DFT Exchange-Correlation Energy =      -6.0437799987129841
    Empirical Dispersion Energy =           0.0000000000000000
    VV10 Nonlocal Energy =                  0.0000000000000000
    Total Energy =                        -56.5197952032890214
 Dipole X            :         -0.0000481            0.0000414           -0.0000066
 Dipole Y            :         35.4919818          -36.0644430           -0.5724612
 Dipole Z            :          0.0000000            0.0000000            0.0000000
 Magnitude           :                                                    0.5724612
  Basis Set: (AUG-CC-PVQZ AUX)
    Blend: AUG-CC-PVQZ-JKFIT
*** Psi4 exiting successfully. Buy a developer a beer!
