                               Psi4 1.9.1 release

  ==> Input File <==

--------------------------------------------------------------------------
molecule monomer{
    0 1
    N    0.000002238  -1.690125077   0.000000000
    H   -0.473181893  -2.049133129   0.819577485
    H   -0.473181893  -2.049133129  -0.819577485
    H    0.946368414  -2.049134909   0.000000000
    units angstrom
    Symmetry C1
}

set {
    basis                  aug-cc-pVQZ
}
dft_func = 'pbe0'
set freeze_core TRUE
# get the charge and multiplicity of the monomer
charge = monomer.molecular_charge()
mult   = monomer.multiplicity()

set reference rks
EN, wfn = energy(dft_func, return_wfn=True)

# We need to find the HOMO eigenvalue of this system
nelec_a   = wfn.nalpha()
epsilon_a = wfn.epsilon_a().np  # The .np is need to convert the Psi4 Vector object to an np.array
e_homo    = epsilon_a[nelec_a-1]

# now remove and electron and increase the multiplicity.
monomer.set_molecular_charge(charge+1)
monomer.set_multiplicity(mult+1)
set reference uks
EN1 = energy(dft_func)

IP = EN1 - EN
AC_shift = IP + e_homo

psi4.print_out("\n")
psi4.print_out("%s energies and IP \n\n" % (dft_func))
psi4.print_out("  Num Electrons   Charge     E_int [a.u.]            \n")
psi4.print_out("-----------------------------------------------------\n")
psi4.print_out("    N             %3d   %10.6f \n" % (charge,EN))
psi4.print_out("    N-1           %3d   %10.6f \n" % (charge+1,EN1))
psi4.print_out("-----------------------------------------------------\n")
psi4.print_out("    IP                  %10.6f   a.u. \n" % (IP))
psi4.print_out("    e_HOMO              %10.6f   a.u. \n" % (e_homo))
psi4.print_out("    AC-shift            %10.6f   a.u. \n" % (AC_shift))
psi4.print_out("-----------------------------------------------------\n")
--------------------------------------------------------------------------

    Molecular point group: c1
  Charge       = 0
  Multiplicity = 1
  Basis Set: AUG-CC-PVQZ
    Blend: AUG-CC-PVQZ
  Basis Set: (AUG-CC-PVQZ AUX)
    Blend: AUG-CC-PVQZ-JKFIT
  @DF-RKS Final Energy:   -56.51974839900527
    Total Energy =                        -56.5197483990052660
 Dipole X            :          0.0000015           -0.0000016           -0.0000002
 Dipole Y            :          0.2589196           -0.8305712           -0.5716516
 Dipole Z            :         -0.0000000            0.0000000           -0.0000000
 Magnitude           :                                                    0.5716516
    Molecular point group: c1

    Geometry (in Angstrom), charge = 1, multiplicity = 2:

       Center              X                  Y                   Z               Mass
    ------------   -----------------  -----------------  -----------------  -----------------
         N            0.000000123473     0.063750657412     0.000000000000    14.003074004430
         H           -0.473184007527    -0.295257394588     0.819577485000     1.007825032230
         H           -0.473184007527    -0.295257394588    -0.819577485000     1.007825032230
         H            0.946366299473    -0.295259174588     0.000000000000     1.007825032230

  Charge       = 1
  Multiplicity = 2
  Basis Set: AUG-CC-PVQZ
    Blend: AUG-CC-PVQZ
  Basis Set: (AUG-CC-PVQZ AUX)
    Blend: AUG-CC-PVQZ-JKFIT

    Orbital Energies [Eh]
    ---------------------

    Alpha Occupied:

       1A    -14.832472     2A     -1.309641     3A     -0.881985
       4A     -0.881985     5A     -0.774915

    Alpha Virtual:

       6A     -0.229162     7A     -0.156646     8A     -0.156646
       9A     -0.119681    10A     -0.102300    11A     -0.102300
      12A     -0.073588    13A     -0.052028    14A     -0.052028
      15A     -0.045137    16A     -0.036904    17A     -0.036904
      18A      0.042053    19A      0.070563    20A      0.070563
      21A      0.081297    22A      0.091429    23A      0.091429
      24A      0.094927    25A      0.129578    26A      0.131467
      27A      0.131467    28A      0.159366    29A      0.159366
      30A      0.213394    31A      0.234936    32A      0.234936
      33A      0.270077    34A      0.347473    35A      0.388749
      36A      0.388749    37A      0.397008    38A      0.409448
      39A      0.409449    40A      0.451614    41A      0.451615
      42A      0.456129    43A      0.475026    44A      0.510794
      45A      0.510795    46A      0.528385    47A      0.540629
      48A      0.540631    49A      0.558856    50A      0.558858
      51A      0.564949    52A      0.610160    53A      0.610160
      54A      0.730183    55A      0.814554    56A      0.814554
      57A      0.898475    58A      0.929515    59A      0.929516
      60A      0.932660    61A      0.961108    62A      1.033367
      63A      1.033369    64A      1.096102    65A      1.096102
      66A      1.118469    67A      1.142307    68A      1.165555
      69A      1.248164    70A      1.248165    71A      1.257922
      72A      1.257925    73A      1.277570    74A      1.349003
      75A      1.349003    76A      1.427198    77A      1.427735
      78A      1.427738    79A      1.470868    80A      1.487730
      81A      1.487731    82A      1.564742    83A      1.564745
      84A      1.618132    85A      1.637500    86A      1.637504
      87A      1.682755    88A      1.686612    89A      1.713124
      90A      1.713127    91A      1.731989    92A      1.857566
      93A      1.857568    94A      1.898858    95A      1.918779
      96A      1.918780    97A      2.131529    98A      2.307002
      99A      2.307005   100A      2.354072   101A      2.358883
     102A      2.373103   103A      2.373103   104A      2.425724
     105A      2.425730   106A      2.448248   107A      2.465790
     108A      2.465792   109A      2.551686   110A      2.599025
     111A      2.602518   112A      2.602519   113A      2.701070
     114A      2.701072   115A      2.794711   116A      2.794714
     117A      2.823131   118A      2.984184   119A      2.984186
     120A      2.996726   121A      3.153831   122A      3.264385
     123A      3.307996   124A      3.308003   125A      3.517638
     126A      3.542143   127A      3.542148   128A      3.573271
     129A      3.573276   130A      3.611004   131A      3.652878
     132A      3.693124   133A      3.812689   134A      3.812689
     135A      4.050114   136A      4.050119   137A      4.291026
     138A      4.291028   139A      4.369404   140A      4.482619
     141A      4.482622   142A      4.642753   143A      4.642754
     144A      4.810568   145A      4.906626   146A      6.172612
     147A      6.172625   148A      6.226294   149A      6.273186
     150A      6.273191   151A      6.377788   152A      6.656560
     153A      6.683906   154A      6.683908   155A      6.703500
     156A      6.703503   157A      6.823413   158A      6.974434
     159A      6.974440   160A      7.007394   161A      7.103909
     162A      7.103917   163A      7.224686   164A      7.287796
     165A      7.287812   166A      7.481329   167A      7.542953
     168A      7.583587   169A      7.583588   170A      7.746982
     171A      7.907771   172A      7.907779   173A      7.956537
     174A      7.956538   175A      8.094755   176A      8.123230
     177A      8.123238   178A      8.180263   179A      8.218389
     180A      8.235219   181A      8.235222   182A      8.304219
     183A      8.311640   184A      8.505336   185A      8.505339
     186A      8.630918   187A      8.630922   188A      8.681459
     189A      8.681463   190A      8.702283   191A      8.903356
     192A      9.002002   193A      9.102490   194A      9.102492
     195A      9.261898   196A      9.261900   197A      9.352060
     198A      9.409465   199A      9.409467   200A      9.685407
     201A      9.685409   202A      9.898585   203A     10.027095
     204A     10.163990   205A     10.163995   206A     10.864470
     207A     11.352858   208A     11.353938   209A     11.353938
     210A     11.467709   211A     11.467709   212A     12.199567
     213A     12.199569   214A     12.257495   215A     13.825578
     216A     14.089968   217A     14.089968   218A     34.870885

    Beta Occupied:

       1A    -14.808483     2A     -1.251965     3A     -0.862869
       4A     -0.862869

    Beta Virtual:

       5A     -0.503966     6A     -0.219452     7A     -0.148738
       8A     -0.148738     9A     -0.098748    10A     -0.098748
      11A     -0.098058    12A     -0.067872    13A     -0.045449
      14A     -0.045448    15A     -0.034489    16A     -0.034489
      17A     -0.030770    18A      0.058308    19A      0.074290
      20A      0.074290    21A      0.081260    22A      0.095901
      23A      0.095901    24A      0.099820    25A      0.137396
      26A      0.137396    27A      0.146297    28A      0.167839
      29A      0.167839    30A      0.232037    31A      0.240734
      32A      0.240734    33A      0.279856    34A      0.367190
      35A      0.395690    36A      0.395690    37A      0.396377
      38A      0.413391    39A      0.413392    40A      0.455569
      41A      0.455570    42A      0.463286    43A      0.477490
      44A      0.519768    45A      0.519769    46A      0.540047
      47A      0.546235    48A      0.546237    49A      0.564974
      50A      0.564975    51A      0.598240    52A      0.624533
      53A      0.624533    54A      0.740503    55A      0.827610
      56A      0.827610    57A      0.943397    58A      0.945586
      59A      0.945587    60A      0.947471    61A      0.960814
      62A      1.040561    63A      1.040563    64A      1.103300
      65A      1.103300    66A      1.126762    67A      1.147883
      68A      1.178521    69A      1.252976    70A      1.252976
      71A      1.276515    72A      1.276519    73A      1.309351
      74A      1.353876    75A      1.353878    76A      1.433439
      77A      1.434358    78A      1.434361    79A      1.472892
      80A      1.492328    81A      1.492329    82A      1.574131
      83A      1.574133    84A      1.627928    85A      1.641125
      86A      1.641127    87A      1.686059    88A      1.690045
      89A      1.720225    90A      1.720227    91A      1.748322
      92A      1.864749    93A      1.864751    94A      1.902629
      95A      1.927821    96A      1.927821    97A      2.189800
      98A      2.317126    99A      2.317129   100A      2.359991
     101A      2.367936   102A      2.384772   103A      2.384772
     104A      2.435413   105A      2.435418   106A      2.496246
     107A      2.496248   108A      2.501282   109A      2.579894
     110A      2.607556   111A      2.629350   112A      2.629351
     113A      2.714198   114A      2.714198   115A      2.830589
     116A      2.830592   117A      2.864174   118A      2.990188
     119A      2.990192   120A      3.030871   121A      3.163041
     122A      3.308578   123A      3.331633   124A      3.331641
     125A      3.544000   126A      3.565941   127A      3.565952
     128A      3.590277   129A      3.590278   130A      3.625506
     131A      3.664492   132A      3.706690   133A      3.828363
     134A      3.828364   135A      4.067892   136A      4.067897
     137A      4.316868   138A      4.316869   139A      4.412174
     140A      4.508226   141A      4.508229   142A      4.666582
     143A      4.666583   144A      4.816919   145A      4.942797
     146A      6.177892   147A      6.177904   148A      6.230933
     149A      6.280048   150A      6.280052   151A      6.383372
     152A      6.661121   153A      6.692665   154A      6.692666
     155A      6.716970   156A      6.716972   157A      6.847424
     158A      6.991364   159A      6.991369   160A      7.009769
     161A      7.131648   162A      7.131655   163A      7.241014
     164A      7.300695   165A      7.300711   166A      7.508411
     167A      7.584251   168A      7.595530   169A      7.595532
     170A      7.781570   171A      7.923084   172A      7.923092
     173A      7.972601   174A      7.972601   175A      8.138039
     176A      8.139633   177A      8.139640   178A      8.194114
     179A      8.235402   180A      8.242755   181A      8.242759
     182A      8.313725   183A      8.344575   184A      8.528078
     185A      8.528082   186A      8.657249   187A      8.657255
     188A      8.705387   189A      8.705390   190A      8.756669
     191A      8.967834   192A      9.006347   193A      9.131765
     194A      9.131769   195A      9.281732   196A      9.281732
     197A      9.373965   198A      9.452340   199A      9.452340
     200A      9.723811   201A      9.723815   202A      9.935856
     203A     10.042083   204A     10.179343   205A     10.179348
     206A     10.882167   207A     11.376338   208A     11.376340
     209A     11.398767   210A     11.509627   211A     11.509629
     212A     12.224682   213A     12.224686   214A     12.263753
     215A     13.847558   216A     14.102736   217A     14.102737
     218A     34.899332

    Final Occupation by Irrep:
              A
    DOCC [     4 ]
    SOCC [     1 ]
    NA   [     5 ]
    NB   [     4 ]

  @DF-UKS Final Energy:   -56.12576253367704

   => Energetics <=

    Nuclear Repulsion Energy =             11.9475631200079544
    One-Electron Energy =                 -95.5311696046864256
    Two-Electron Energy =                  33.2651657599166555
    DFT Exchange-Correlation Energy =      -5.8073218089152281
    Empirical Dispersion Energy =           0.0000000000000000
    VV10 Nonlocal Energy =                  0.0000000000000000
    Total Energy =                        -56.1257625336770403

  UHF NO Occupations:
  HONO-2 :    3  A 1.9995890
  HONO-1 :    4  A 1.9991973
  HONO-0 :    5  A 1.0000000
  LUNO+0 :    6  A 0.0008027
  LUNO+1 :    7  A 0.0004110
  LUNO+2 :    8  A 0.0004110
  LUNO+3 :    9  A 0.0000009

Computation Completed

Properties will be evaluated at   0.000000,   0.000000,   0.000000 [a0]

Properties computed using the SCF density matrix

 Multipole Moments:

 ------------------------------------------------------------------------------------
     Multipole            Electronic (a.u.)      Nuclear  (a.u.)        Total (a.u.)
 ------------------------------------------------------------------------------------

 L = 1.  Multiply by 2.5417464519 to convert [e a0] to [Debye]
 Dipole X            :          0.0000005           -0.0000016           -0.0000011
 Dipole Y            :          0.3447662           -0.8305712           -0.4858050
 Dipole Z            :         -0.0000000            0.0000000           -0.0000000
 Magnitude           :                                                    0.4858050

 ------------------------------------------------------------------------------------

*** tstop() called on cmpsrv002 at Tue Sep 10 17:19:01 2024
Module time:
	user time   =      15.33 seconds =       0.26 minutes
	system time =       0.38 seconds =       0.01 minutes
	total time  =          4 seconds =       0.07 minutes
Total time:
	user time   =      23.85 seconds =       0.40 minutes
	system time =       0.87 seconds =       0.01 minutes
	total time  =          6 seconds =       0.10 minutes

pbe0 energies and IP

  Num Electrons   Charge     E_int [a.u.]
-----------------------------------------------------
    N               0   -56.519748
    N-1             1   -56.125763
-----------------------------------------------------
    IP                    0.393986   a.u.
    e_HOMO               -0.280824   a.u.
    AC-shift              0.113162   a.u.
-----------------------------------------------------

    Psi4 stopped on: Tuesday, 10 September 2024 05:19PM
    Psi4 wall time for execution: 0:00:06.30

*** Psi4 exiting successfully. Buy a developer a beer!
