                               Psi4 1.9.1 release

  ==> Input File <==

--------------------------------------------------------------------------
#charge=0 charge_a=0 charge_b=0 selection_a=1-2 selection_b=3-6 scaling=1.25 benchmark_Eint=-7.888 benchmark_unit=kcal/mol group=XH-N
set_num_threads(4)
memory 8 GB
basis this_basis {
    assign    aug-cc-pVQZ
}

molecule {
     0 1
    --
     0 1
     H        0.00000       -0.31269        0.00000
    Cl       -0.00000        1.03066        0.00000
    --
     0 1
     N        0.00000       -2.46493        0.00000
     H       -0.47318       -2.82394        0.81958
     H       -0.47318       -2.82394       -0.81958
     H        0.94637       -2.82394        0.00000
}

set {
    scf_type                DF
    freeze_core             false
    do_ind_exch_sinf        true
    do_disp_exch_sinf       true
}

nrg = energy('sapt2+dmp2')
--------------------------------------------------------------------------

  //              Dimer HF             //
    Molecular point group: c1
  Charge       = 0
  Multiplicity = 1
  Basis Set: THIS_BASIS
    Blend: AUG-CC-PVQZ
  Basis Set: (THIS_BASIS AUX)
    Blend: AUG-CC-PVQZ-JKFIT
  @DF-RHF Final Energy:  -516.34167595984445
    Total Energy =                       -516.3416759598444514
 Dipole X            :         -0.0000060            0.0000088            0.0000029
 Dipole Y            :          7.2607716           -8.7800289           -1.5192573
 Dipole Z            :         -0.0000000            0.0000000           -0.0000000
 Magnitude           :                                                    1.5192573
  Basis Set: (THIS_BASIS AUX)
    Blend: AUG-CC-PVQZ-RI
	 Reference Energy          =    -516.3416759598444514 [Eh]
	 Singles Energy            =      -0.0000000000000000 [Eh]
	 Same-Spin Energy          =      -0.1309458815598430 [Eh]
	 Opposite-Spin Energy      =      -0.4464387582609643 [Eh]
	 Correlation Energy        =      -0.5773846398208073 [Eh]
	 Total Energy              =    -516.9190605996652721 [Eh]
	 SCS Total Energy          =    -516.9210510969442112 [Eh]
  //            Monomer A HF           //
    Molecular point group: c1
  Multiplicity = 1
  Basis Set: THIS_BASIS
    Blend: AUG-CC-PVQZ
  Basis Set: (THIS_BASIS AUX)
    Blend: AUG-CC-PVQZ-JKFIT
  @DF-RHF Final Energy:  -460.10801743875368
    Total Energy =                       -460.1080174387536772
  Basis Set: (THIS_BASIS AUX)
	 Singles Energy            =      -0.0000000000000000 [Eh]
	 Same-Spin Energy          =      -0.0693713818168209 [Eh]
	 Opposite-Spin Energy      =      -0.2202099467435840 [Eh]
	 Correlation Energy        =      -0.2895813285604050 [Eh]
	 Total Energy              =    -460.3975987673140935 [Eh]
	 SCS Total Energy          =    -460.3953931687848922 [Eh]
  //            Monomer B HF           //
    Molecular point group: c1

    Geometry (in Angstrom), charge = 0, multiplicity = 1:

       Center              X                  Y                   Z               Mass
    ------------   -----------------  -----------------  -----------------  -----------------
      Gh(H)          -0.000000190144    -0.174418256660     0.000000000000     1.007825032230
      Gh(CL)         -0.000000190144     1.168931743340     0.000000000000    34.968852682000
         N           -0.000000190144    -2.326658256660     0.000000000000    14.003074004430
         H           -0.473180190144    -2.685668256660     0.819580000000     1.007825032230
         H           -0.473180190144    -2.685668256660    -0.819580000000     1.007825032230
         H            0.946369809856    -2.685668256660     0.000000000000     1.007825032230

  Charge       = 0
  Multiplicity = 1
  Basis Set: THIS_BASIS
    Blend: AUG-CC-PVQZ
  Basis Set: (THIS_BASIS AUX)
    Blend: AUG-CC-PVQZ-JKFIT

    Orbital Energies [Eh]
    ---------------------

    Doubly Occupied:

       1A    -15.539186     2A     -1.139723     3A     -0.630911
       4A     -0.630909     5A     -0.425446

  @DF-RHF Final Energy:   -56.22398139628430

   => Energetics <=

    Nuclear Repulsion Energy =             11.9475428385057612
    One-Electron Energy =                 -99.6106936045472651
    Two-Electron Energy =                  31.4391693697571952
    Total Energy =                        -56.2239813962843016
 Dipole X            :         -0.0000127            0.0000153            0.0000026
 Dipole Y            :         45.3963475          -46.0027607           -0.6064131
 Dipole Z            :          0.0000000            0.0000000            0.0000000
 Magnitude           :                                                    0.6064131
  Basis Set: (THIS_BASIS AUX)
    Blend: AUG-CC-PVQZ-RI
	 Reference Energy          =     -56.2239813962843016 [Eh]
	 Singles Energy            =      -0.0000000000000000 [Eh]
	 Same-Spin Energy          =      -0.0594122268321508 [Eh]
	 Opposite-Spin Energy      =      -0.2248991749927633 [Eh]
	 Correlation Energy        =      -0.2843114018249140 [Eh]
	 Total Energy              =     -56.5082927981092169 [Eh]

	 ================> DF-SCS-MP2 Energies <==================
	-----------------------------------------------------------
	 SCS Same-Spin Scale       =       0.3333333333333333 [-]
	 SCS Opposite-Spin Scale   =       1.2000000000000000 [-]
	 SCS Same-Spin Energy      =      -0.0198040756107169 [Eh]
	 SCS Opposite-Spin Energy  =      -0.2698790099913159 [Eh]
	 SCS Correlation Energy    =      -0.2896830856020328 [Eh]
	 SCS Total Energy          =     -56.5136644818863374 [Eh]
	-----------------------------------------------------------

    SAPT Results
  --------------------------------------------------------------------------------------------------------
    Electrostatics                -15.13997222 [mEh]      -9.50047600 [kcal/mol]     -39.74999158 [kJ/mol]
      Elst10,r                    -15.42011528 [mEh]      -9.67626842 [kcal/mol]     -40.48550708 [kJ/mol]
      Elst12,r                      0.28014306 [mEh]       0.17579242 [kcal/mol]       0.73551550 [kJ/mol]

    Exchange                       12.50694683 [mEh]       7.84822762 [kcal/mol]      32.83698438 [kJ/mol]
      Exch10                       11.78280431 [mEh]       7.39382133 [kcal/mol]      30.93574846 [kJ/mol]
      Exch10(S^2)                  11.66255379 [mEh]       7.31836299 [kcal/mol]      30.62003076 [kJ/mol]
      Exch11(S^2)                   0.58630203 [mEh]       0.36791008 [kcal/mol]       1.53933576 [kJ/mol]
      Exch12(S^2)                   0.13784049 [mEh]       0.08649621 [kcal/mol]       0.36190015 [kJ/mol]

    Induction                      -6.34891672 [mEh]      -3.98400539 [kcal/mol]     -16.66907856 [kJ/mol]
      Ind20,r                      -6.18318262 [mEh]      -3.88000567 [kcal/mol]     -16.23394372 [kJ/mol]
      Ind22                        -0.34676025 [mEh]      -0.21759534 [kcal/mol]      -0.91041891 [kJ/mol]
      Exch-Ind20,r                  3.15877147 [mEh]       1.98215902 [kcal/mol]       8.29335335 [kJ/mol]
      Exch-Ind22                    0.17714767 [mEh]       0.11116184 [kcal/mol]       0.46510114 [kJ/mol]
      delta HF,r (2)               -3.01540269 [mEh]      -1.89219376 [kcal/mol]      -7.91693868 [kJ/mol]
      delta MP2,r (2)              -0.13949030 [mEh]      -0.08753149 [kcal/mol]      -0.36623174 [kJ/mol]

    Dispersion                     -4.49003197 [mEh]      -2.81753760 [kcal/mol]     -11.78857731 [kJ/mol]
      Disp20                       -5.12102908 [mEh]      -3.21349426 [kcal/mol]     -13.44525998 [kJ/mol]
      Disp21                        0.26140427 [mEh]       0.16403366 [kcal/mol]       0.68631682 [kJ/mol]
      Disp22 (SDQ)                  0.27580756 [mEh]       0.17307186 [kcal/mol]       0.72413265 [kJ/mol]
      Disp22 (T)                   -0.71111381 [mEh]      -0.44623065 [kcal/mol]      -1.86702905 [kJ/mol]
      Est. Disp22 (T)              -0.84015167 [mEh]      -0.52720313 [kcal/mol]      -2.20581791 [kJ/mol]
      Exch-Disp20                   0.93393695 [mEh]       0.58605428 [kcal/mol]       2.45205111 [kJ/mol]

  Total HF                         -9.67712481 [mEh]      -6.07248749 [kcal/mol]     -25.40728768 [kJ/mol]
  Total SAPT0                     -13.86421694 [mEh]      -8.69992747 [kcal/mol]     -36.40049655 [kJ/mol]
  Total SAPT2                     -13.02954394 [mEh]      -8.17616226 [kcal/mol]     -34.20906290 [kJ/mol]
  Total SAPT2+                    -13.33248378 [mEh]      -8.36625988 [kcal/mol]     -35.00443134 [kJ/mol]
  Total SAPT2+dMP2                -13.47197408 [mEh]      -8.45379137 [kcal/mol]     -35.37066308 [kJ/mol]

  Special recipe for scaled SAPT0 (see Manual):
    Electrostatics sSAPT0         -15.42011528 [mEh]      -9.67626842 [kcal/mol]     -40.48550708 [kJ/mol]
    Exchange sSAPT0                11.78280431 [mEh]       7.39382133 [kcal/mol]      30.93574846 [kJ/mol]
    Induction sSAPT0               -5.94109433 [mEh]      -3.72809297 [kcal/mol]     -15.59834100 [kJ/mol]
    Dispersion sSAPT0              -4.15790426 [mEh]      -2.60912432 [kcal/mol]     -10.91657614 [kJ/mol]
  Total sSAPT0                    -13.73630955 [mEh]      -8.61966438 [kcal/mol]     -36.06467576 [kJ/mol]
  --------------------------------------------------------------------------------------------------------

*** Psi4 exiting successfully. Buy a developer a beer!
