                               Psi4 1.9.1 release

  ==> Input File <==

--------------------------------------------------------------------------
#charge=0 charge_a=0 charge_b=0 selection_a=1-2 selection_b=3-6 scaling=1.0 benchmark_Eint=-9.680 benchmark_unit=kcal/mol group=XH-N
set_num_threads(4)
memory 8 GB
basis this_basis {
    assign    aug-cc-pVQZ
}

molecule {
     0 1
    --
     0 1
     H        0.00000       -0.31269        0.00000
    Cl       -0.00000        1.03066        0.00000
    --
     0 1
     N        0.00000       -2.03448        0.00000
     H       -0.47318       -2.39349        0.81958
     H       -0.47318       -2.39349       -0.81958
     H        0.94637       -2.39349        0.00000
}

set {
    scf_type                DF
    freeze_core             false
    do_ind_exch_sinf        true
    do_disp_exch_sinf       true
}

nrg = energy('sapt2+dmp2')
--------------------------------------------------------------------------

  //              Dimer HF             //
    Molecular point group: c1
  Charge       = 0
  Multiplicity = 1
  Basis Set: THIS_BASIS
    Blend: AUG-CC-PVQZ
  Basis Set: (THIS_BASIS AUX)
    Blend: AUG-CC-PVQZ-JKFIT
  @DF-RHF Final Energy:  -516.34154660795537
    Total Energy =                       -516.3415466079553653
 Dipole X            :         -0.0000058            0.0000088            0.0000031
 Dipole Y            :          6.1257581           -7.9622122           -1.8364541
 Dipole Z            :          0.0000000            0.0000000            0.0000000
 Magnitude           :                                                    1.8364541
  Basis Set: (THIS_BASIS AUX)
    Blend: AUG-CC-PVQZ-RI
	 Reference Energy          =    -516.3415466079553653 [Eh]
	 Singles Energy            =      -0.0000000000000000 [Eh]
	 Same-Spin Energy          =      -0.1333426309481756 [Eh]
	 Opposite-Spin Energy      =      -0.4484772533645300 [Eh]
	 Correlation Energy        =      -0.5818198843127057 [Eh]
	 Total Energy              =    -516.9233664922680873 [Eh]
	 SCS Total Energy          =    -516.9241668556421700 [Eh]
  //            Monomer A HF           //
    Molecular point group: c1
  Multiplicity = 1
  Basis Set: THIS_BASIS
    Blend: AUG-CC-PVQZ
  Basis Set: (THIS_BASIS AUX)
    Blend: AUG-CC-PVQZ-JKFIT
  @DF-RHF Final Energy:  -460.10802431151751
    Total Energy =                       -460.1080243115175108
  Basis Set: (THIS_BASIS AUX)
	 Singles Energy            =      -0.0000000000000000 [Eh]
	 Same-Spin Energy          =      -0.0694690408223007 [Eh]
	 Opposite-Spin Energy      =      -0.2205112532766802 [Eh]
	 Correlation Energy        =      -0.2899802940989809 [Eh]
	 Total Energy              =    -460.3980046056165065 [Eh]
	 SCS Total Energy          =    -460.3957941623903025 [Eh]
  //            Monomer B HF           //
    Molecular point group: c1

    Geometry (in Angstrom), charge = 0, multiplicity = 1:

       Center              X                  Y                   Z               Mass
    ------------   -----------------  -----------------  -----------------  -----------------
      Gh(H)          -0.000000190144    -0.312694329665     0.000000000000     1.007825032230
      Gh(CL)         -0.000000190144     1.030655670335     0.000000000000    34.968852682000
         N           -0.000000190144    -2.034484329665     0.000000000000    14.003074004430
         H           -0.473180190144    -2.393494329665     0.819580000000     1.007825032230
         H           -0.473180190144    -2.393494329665    -0.819580000000     1.007825032230
         H            0.946369809856    -2.393494329665     0.000000000000     1.007825032230

  Charge       = 0
  Multiplicity = 1
  Basis Set: THIS_BASIS
    Blend: AUG-CC-PVQZ
  Basis Set: (THIS_BASIS AUX)
    Blend: AUG-CC-PVQZ-JKFIT

    Orbital Energies [Eh]
    ---------------------

    Doubly Occupied:

       1A    -15.539190     2A     -1.139718     3A     -0.630907
       4A     -0.630905     5A     -0.425447

  @DF-RHF Final Energy:   -56.22399050266024

   => Energetics <=

    Nuclear Repulsion Energy =             11.9475428385057647
    One-Electron Energy =                 -99.6107283703862265
    Two-Electron Energy =                  31.4391950292202189
    Total Energy =                        -56.2239905026602429
 Dipole X            :         -0.0000127            0.0000153            0.0000026
 Dipole Y            :         39.8750377          -40.4814736           -0.6064360
 Dipole Z            :          0.0000000            0.0000000            0.0000000
 Magnitude           :                                                    0.6064360
  Basis Set: (THIS_BASIS AUX)
    Blend: AUG-CC-PVQZ-RI
	 Reference Energy          =     -56.2239905026602429 [Eh]
	 Singles Energy            =      -0.0000000000000000 [Eh]
	 Same-Spin Energy          =      -0.0594418935469994 [Eh]
	 Opposite-Spin Energy      =      -0.2251567939232252 [Eh]
	 Correlation Energy        =      -0.2845986874702245 [Eh]
	 Total Energy              =     -56.5085891901304649 [Eh]

	 ================> DF-SCS-MP2 Energies <==================
	-----------------------------------------------------------
	 SCS Same-Spin Scale       =       0.3333333333333333 [-]
	 SCS Opposite-Spin Scale   =       1.2000000000000000 [-]
	 SCS Same-Spin Energy      =      -0.0198139645156665 [Eh]
	 SCS Opposite-Spin Energy  =      -0.2701881527078702 [Eh]
	 SCS Correlation Energy    =      -0.2900021172235367 [Eh]
	 SCS Total Energy          =     -56.5139926198837799 [Eh]
	-----------------------------------------------------------

    SAPT Results
  --------------------------------------------------------------------------------------------------------
    Electrostatics                -33.33486241 [mEh]     -20.91794197 [kcal/mol]     -87.52066920 [kJ/mol]
      Elst10,r                    -34.01650965 [mEh]     -21.34568207 [kcal/mol]     -89.31033378 [kJ/mol]
      Elst12,r                      0.68164724 [mEh]       0.42774010 [kcal/mol]       1.78966457 [kJ/mol]

    Exchange                       46.81339743 [mEh]      29.37585039 [kcal/mol]     122.90855802 [kJ/mol]
      Exch10                       45.23983002 [mEh]      28.38842193 [kcal/mol]     118.77715735 [kJ/mol]
      Exch10(S^2)                  43.75096172 [mEh]      27.45414296 [kcal/mol]     114.86813416 [kJ/mol]
      Exch11(S^2)                   2.06712578 [mEh]       1.29714101 [kcal/mol]       5.42723800 [kJ/mol]
      Exch12(S^2)                  -0.49355837 [mEh]      -0.30971255 [kcal/mol]      -1.29583733 [kJ/mol]

    Induction                     -20.43986847 [mEh]     -12.82621111 [kcal/mol]     -53.66486727 [kJ/mol]
      Ind20,r                     -23.54009563 [mEh]     -14.77163302 [kcal/mol]     -61.80451256 [kJ/mol]
      Ind22                        -1.03453678 [mEh]      -0.64918163 [kcal/mol]      -2.71617595 [kJ/mol]
      Exch-Ind20,r                 13.94570744 [mEh]       8.75106354 [kcal/mol]      36.61444985 [kJ/mol]
      Exch-Ind22                    0.61288397 [mEh]       0.38459050 [kcal/mol]       1.60912665 [kJ/mol]
      delta HF,r (2)              -11.16072596 [mEh]      -7.00346127 [kcal/mol]     -29.30248196 [kJ/mol]
      delta MP2,r (2)               0.73689849 [mEh]       0.46241078 [kcal/mol]       1.93472672 [kJ/mol]

    Dispersion                    -10.15139493 [mEh]      -6.37009649 [kcal/mol]     -26.65248372 [kJ/mol]
      Disp20                      -12.61470880 [mEh]      -7.91584928 [kcal/mol]     -33.11991340 [kJ/mol]
      Disp21                        0.91281910 [mEh]       0.57280263 [kcal/mol]       2.39660622 [kJ/mol]
      Disp22 (SDQ)                  0.64433846 [mEh]       0.40432849 [kcal/mol]       1.69171039 [kJ/mol]
      Disp22 (T)                   -1.64225314 [mEh]      -1.03052940 [kcal/mol]      -4.31173502 [kJ/mol]
      Est. Disp22 (T)              -1.89718942 [mEh]      -1.19050434 [kcal/mol]      -4.98107014 [kJ/mol]
      Exch-Disp20                   2.80334573 [mEh]       1.75912601 [kcal/mol]       7.36018321 [kJ/mol]

  Total HF                         -9.53179378 [mEh]      -5.98129090 [kcal/mol]     -25.02572112 [kJ/mol]
  Total SAPT0                     -19.34315685 [mEh]     -12.13801418 [kcal/mol]     -50.78545131 [kJ/mol]
  Total SAPT2                     -17.50959501 [mEh]     -10.98743675 [kcal/mol]     -45.97143537 [kJ/mol]
  Total SAPT2+                    -17.84962687 [mEh]     -11.20080997 [kcal/mol]     -46.86418890 [kJ/mol]
  Total SAPT2+dMP2                -17.11272838 [mEh]     -10.73839918 [kcal/mol]     -44.92946218 [kJ/mol]

  Special recipe for scaled SAPT0 (see Manual):
    Electrostatics sSAPT0         -34.01650965 [mEh]     -21.34568207 [kcal/mol]     -89.31033378 [kJ/mol]
    Exchange sSAPT0                45.23983002 [mEh]      28.38842193 [kcal/mol]     118.77715735 [kJ/mol]
    Induction sSAPT0              -19.28237461 [mEh]     -12.09987274 [kcal/mol]     -50.62586756 [kJ/mol]
    Dispersion sSAPT0              -9.51531512 [mEh]      -5.97095038 [kcal/mol]     -24.98245641 [kJ/mol]
  Total sSAPT0                    -17.57436936 [mEh]     -11.02808327 [kcal/mol]     -46.14150040 [kJ/mol]
  --------------------------------------------------------------------------------------------------------

*** Psi4 exiting successfully. Buy a developer a beer!
