                               Psi4 1.9.1 release

  ==> Input File <==

--------------------------------------------------------------------------
#charge=0 charge_a=0 charge_b=0 selection_a=1-2 selection_b=3-6 scaling=2.0 benchmark_Eint=-2.190 benchmark_unit=kcal/mol group=XH-N
set_num_threads(4)
memory 8 GB
basis this_basis {
    assign    aug-cc-pVQZ
}

molecule {
     0 1
    --
     0 1
     H        0.00000       -0.31269        0.00000
    Cl       -0.00000        1.03066        0.00000
    --
     0 1
     N        0.00001       -3.75628        0.00000
     H       -0.47318       -4.11529        0.81958
     H       -0.47318       -4.11529       -0.81958
     H        0.94637       -4.11529        0.00000
}

set {
    scf_type                DF
    freeze_core             false
    do_ind_exch_sinf        true
    do_disp_exch_sinf       true
}

nrg = energy('sapt2+dmp2')
--------------------------------------------------------------------------

  //              Dimer HF             //
    Molecular point group: c1
  Charge       = 0
  Multiplicity = 1
  Basis Set: THIS_BASIS
    Blend: AUG-CC-PVQZ
  Basis Set: (THIS_BASIS AUX)
    Blend: AUG-CC-PVQZ-JKFIT
  @DF-RHF Final Energy:  -516.33527289134486
    Total Energy =                       -516.3352728913448573
 Dipole X            :         -0.0000057            0.0000013           -0.0000044
 Dipole Y            :         10.0171066          -11.2334789           -1.2163723
 Dipole Z            :         -0.0000000            0.0000000           -0.0000000
 Magnitude           :                                                    1.2163723
  Basis Set: (THIS_BASIS AUX)
    Blend: AUG-CC-PVQZ-RI
	 Reference Energy          =    -516.3352728913448573 [Eh]
	 Singles Energy            =      -0.0000000000000000 [Eh]
	 Same-Spin Energy          =      -0.1288948748072020 [Eh]
	 Opposite-Spin Energy      =      -0.4445901345759875 [Eh]
	 Correlation Energy        =      -0.5734850093831896 [Eh]
	 Total Energy              =    -516.9087579007280056 [Eh]
	 SCS Total Energy          =    -516.9117460111051514 [Eh]
  //            Monomer A HF           //
    Molecular point group: c1
  Multiplicity = 1
  Basis Set: THIS_BASIS
    Blend: AUG-CC-PVQZ
  Basis Set: (THIS_BASIS AUX)
    Blend: AUG-CC-PVQZ-JKFIT
  @DF-RHF Final Energy:  -460.10800990400793
    Total Energy =                       -460.1080099040079290
  Basis Set: (THIS_BASIS AUX)
	 Singles Energy            =      -0.0000000000000000 [Eh]
	 Same-Spin Energy          =      -0.0692465102256921 [Eh]
	 Opposite-Spin Energy      =      -0.2198283292416344 [Eh]
	 Correlation Energy        =      -0.2890748394673264 [Eh]
	 Total Energy              =    -460.3970847434752613 [Eh]
	 SCS Total Energy          =    -460.3948860691731397 [Eh]
  //            Monomer B HF           //
    Molecular point group: c1

    Geometry (in Angstrom), charge = 0, multiplicity = 1:

       Center              X                  Y                   Z               Mass
    ------------   -----------------  -----------------  -----------------  -----------------
      Gh(H)          -0.000002832073     0.240409962352     0.000000000000     1.007825032230
      Gh(CL)         -0.000002832073     1.583759962352     0.000000000000    34.968852682000
         N            0.000007167927    -3.203180037648     0.000000000000    14.003074004430
         H           -0.473182832073    -3.562190037648     0.819580000000     1.007825032230
         H           -0.473182832073    -3.562190037648    -0.819580000000     1.007825032230
         H            0.946367167927    -3.562190037648     0.000000000000     1.007825032230

  Charge       = 0
  Multiplicity = 1
  Basis Set: THIS_BASIS
    Blend: AUG-CC-PVQZ
  Basis Set: (THIS_BASIS AUX)
    Blend: AUG-CC-PVQZ-JKFIT

    Orbital Energies [Eh]
    ---------------------

    Doubly Occupied:

       1A    -15.539184     2A     -1.139729     3A     -0.630917
       4A     -0.630912     5A     -0.425447

  @DF-RHF Final Energy:   -56.22397228626721

   => Energetics <=

    Nuclear Repulsion Energy =             11.9475428387581371
    One-Electron Energy =                 -99.6106530907869683
    Two-Electron Energy =                  31.4391379657616241
    Total Energy =                        -56.2239722862672053
 Dipole X            :         -0.0001022            0.0000977           -0.0000045
 Dipole Y            :         61.9603033          -62.5666217           -0.6063185
 Dipole Z            :         -0.0000000            0.0000000           -0.0000000
 Magnitude           :                                                    0.6063185
  Basis Set: (THIS_BASIS AUX)
    Blend: AUG-CC-PVQZ-RI
	 Reference Energy          =     -56.2239722862672053 [Eh]
	 Singles Energy            =      -0.0000000000000000 [Eh]
	 Same-Spin Energy          =      -0.0593893197218320 [Eh]
	 Opposite-Spin Energy      =      -0.2246984299606039 [Eh]
	 Correlation Energy        =      -0.2840877496824359 [Eh]
	 Total Energy              =     -56.5080600359496401 [Eh]

	 ================> DF-SCS-MP2 Energies <==================
	-----------------------------------------------------------
	 SCS Same-Spin Scale       =       0.3333333333333333 [-]
	 SCS Opposite-Spin Scale   =       1.2000000000000000 [-]
	 SCS Same-Spin Energy      =      -0.0197964399072773 [Eh]
	 SCS Opposite-Spin Energy  =      -0.2696381159527247 [Eh]
	 SCS Correlation Energy    =      -0.2894345558600020 [Eh]
	 SCS Total Energy          =     -56.5134068421272104 [Eh]
	-----------------------------------------------------------

    SAPT Results
  --------------------------------------------------------------------------------------------------------
    Electrostatics                 -3.06945390 [mEh]      -1.92611140 [kcal/mol]      -8.05885010 [kJ/mol]
      Elst10,r                     -3.19371809 [mEh]      -2.00408836 [kcal/mol]      -8.38510569 [kJ/mol]
      Elst12,r                      0.12426419 [mEh]       0.07797696 [kcal/mol]       0.32625559 [kJ/mol]

    Exchange                        0.20592221 [mEh]       0.12921814 [kcal/mol]       0.54064869 [kJ/mol]
      Exch10                        0.17861540 [mEh]       0.11208285 [kcal/mol]       0.46895466 [kJ/mol]
      Exch10(S^2)                   0.17857200 [mEh]       0.11205562 [kcal/mol]       0.46884073 [kJ/mol]
      Exch11(S^2)                   0.00877181 [mEh]       0.00550439 [kcal/mol]       0.02303038 [kJ/mol]
      Exch12(S^2)                   0.01853500 [mEh]       0.01163089 [kcal/mol]       0.04866365 [kJ/mol]

    Induction                      -0.29778811 [mEh]      -0.18686486 [kcal/mol]      -0.78184257 [kJ/mol]
      Ind20,r                      -0.26136131 [mEh]      -0.16400670 [kcal/mol]      -0.68620403 [kJ/mol]
      Ind22                        -0.01104012 [mEh]      -0.00692778 [kcal/mol]      -0.02898584 [kJ/mol]
      Exch-Ind20,r                  0.03642949 [mEh]       0.02285985 [kcal/mol]       0.09564561 [kJ/mol]
      Exch-Ind22                    0.00153881 [mEh]       0.00096562 [kcal/mol]       0.00404015 [kJ/mol]
      delta HF,r (2)               -0.05066655 [mEh]      -0.03179374 [kcal/mol]      -0.13302502 [kJ/mol]
      delta MP2,r (2)              -0.01268842 [mEh]      -0.00796210 [kcal/mol]      -0.03331344 [kJ/mol]

    Dispersion                     -0.48652485 [mEh]      -0.30529895 [kcal/mol]      -1.27737083 [kJ/mol]
      Disp20                       -0.47325279 [mEh]      -0.29697061 [kcal/mol]      -1.24252503 [kJ/mol]
      Disp21                        0.03089900 [mEh]       0.01938942 [kcal/mol]       0.08112532 [kJ/mol]
      Disp22 (SDQ)                  0.02257753 [mEh]       0.01416761 [kcal/mol]       0.05927729 [kJ/mol]
      Disp22 (T)                   -0.07713456 [mEh]      -0.04840266 [kcal/mol]      -0.20251675 [kJ/mol]
      Est. Disp22 (T)              -0.08819987 [mEh]      -0.05534626 [kcal/mol]      -0.23156874 [kJ/mol]
      Exch-Disp20                   0.02145128 [mEh]       0.01346088 [kcal/mol]       0.05632033 [kJ/mol]

  Total HF                         -3.29070107 [mEh]      -2.06494610 [kcal/mol]      -8.63973447 [kJ/mol]
  Total SAPT0                      -3.74250258 [mEh]      -2.34845582 [kcal/mol]      -9.82593916 [kJ/mol]
  Total SAPT2                      -3.60043288 [mEh]      -2.25930574 [kcal/mol]      -9.45293523 [kJ/mol]
  Total SAPT2+                     -3.63515623 [mEh]      -2.28109497 [kcal/mol]      -9.54410136 [kJ/mol]
  Total SAPT2+dMP2                 -3.64784465 [mEh]      -2.28905708 [kcal/mol]      -9.57741480 [kJ/mol]

  Special recipe for scaled SAPT0 (see Manual):
    Electrostatics sSAPT0          -3.19371809 [mEh]      -2.00408836 [kcal/mol]      -8.38510569 [kJ/mol]
    Exchange sSAPT0                 0.17861540 [mEh]       0.11208285 [kcal/mol]       0.46895466 [kJ/mol]
    Induction sSAPT0               -0.27557181 [mEh]      -0.17292392 [kcal/mol]      -0.72351370 [kJ/mol]
    Dispersion sSAPT0              -0.45178587 [mEh]      -0.28349991 [kcal/mol]      -1.18616363 [kJ/mol]
  Total sSAPT0                     -3.74246037 [mEh]      -2.34842934 [kcal/mol]      -9.82582835 [kJ/mol]
  --------------------------------------------------------------------------------------------------------

*** Psi4 exiting successfully. Buy a developer a beer!
