                               Psi4 1.9.1 release

  ==> Input File <==

--------------------------------------------------------------------------
#charge=0 charge_a=0 charge_b=0 selection_a=1-2 selection_b=3-6 scaling=1.05 benchmark_Eint=-9.617 benchmark_unit=kcal/mol group=XH-N
set_num_threads(4)
memory 8 GB
basis this_basis {
    assign    aug-cc-pVQZ
}

molecule {
     0 1
    --
     0 1
     H        0.00000       -0.31269        0.00000
    Cl       -0.00000        1.03066        0.00000
    --
     0 1
     N        0.00000       -2.12057        0.00000
     H       -0.47318       -2.47958        0.81958
     H       -0.47318       -2.47958       -0.81958
     H        0.94637       -2.47958        0.00000
}

set {
    scf_type                DF
    freeze_core             false
    do_ind_exch_sinf        true
    do_disp_exch_sinf       true
}

nrg = energy('sapt2+dmp2')
--------------------------------------------------------------------------

  //              Dimer HF             //
    Molecular point group: c1
  Charge       = 0
  Multiplicity = 1
  Basis Set: THIS_BASIS
    Blend: AUG-CC-PVQZ
  Basis Set: (THIS_BASIS AUX)
    Blend: AUG-CC-PVQZ-JKFIT
  @DF-RHF Final Energy:  -516.34216738381917
    Total Energy =                       -516.3421673838190600
 Dipole X            :         -0.0000058            0.0000088            0.0000030
 Dipole Y            :          6.3705453           -8.1257755           -1.7552302
 Dipole Z            :          0.0000000            0.0000000            0.0000000
 Magnitude           :                                                    1.7552302
  Basis Set: (THIS_BASIS AUX)
    Blend: AUG-CC-PVQZ-RI
	 Reference Energy          =    -516.3421673838191737 [Eh]
	 Singles Energy            =      -0.0000000000000000 [Eh]
	 Same-Spin Energy          =      -0.1327453152795988 [Eh]
	 Opposite-Spin Energy      =      -0.4479865493128201 [Eh]
	 Correlation Energy        =      -0.5807318645924189 [Eh]
	 Total Energy              =    -516.9228992484115679 [Eh]
	 SCS Total Energy          =    -516.9239996814210372 [Eh]
  //            Monomer A HF           //
    Molecular point group: c1
  Multiplicity = 1
  Basis Set: THIS_BASIS
    Blend: AUG-CC-PVQZ
  Basis Set: (THIS_BASIS AUX)
    Blend: AUG-CC-PVQZ-JKFIT
  @DF-RHF Final Energy:  -460.10802256963501
    Total Energy =                       -460.1080225696350112
  Basis Set: (THIS_BASIS AUX)
	 Singles Energy            =      -0.0000000000000000 [Eh]
	 Same-Spin Energy          =      -0.0694476699671341 [Eh]
	 Opposite-Spin Energy      =      -0.2204434439293663 [Eh]
	 Correlation Energy        =      -0.2898911138965004 [Eh]
	 Total Energy              =    -460.3979136835314989 [Eh]
	 SCS Total Energy          =    -460.3957039256726489 [Eh]
  //            Monomer B HF           //
    Molecular point group: c1

    Geometry (in Angstrom), charge = 0, multiplicity = 1:

       Center              X                  Y                   Z               Mass
    ------------   -----------------  -----------------  -----------------  -----------------
      Gh(H)          -0.000000190144    -0.285039115064     0.000000000000     1.007825032230
      Gh(CL)         -0.000000190144     1.058310884936     0.000000000000    34.968852682000
         N           -0.000000190144    -2.092919115064     0.000000000000    14.003074004430
         H           -0.473180190144    -2.451929115064     0.819580000000     1.007825032230
         H           -0.473180190144    -2.451929115064    -0.819580000000     1.007825032230
         H            0.946369809856    -2.451929115064     0.000000000000     1.007825032230

  Charge       = 0
  Multiplicity = 1
  Basis Set: THIS_BASIS
    Blend: AUG-CC-PVQZ
  Basis Set: (THIS_BASIS AUX)
    Blend: AUG-CC-PVQZ-JKFIT

    Orbital Energies [Eh]
    ---------------------

    Doubly Occupied:

       1A    -15.539187     2A     -1.139719     3A     -0.630908
       4A     -0.630905     5A     -0.425448

  @DF-RHF Final Energy:   -56.22398895776972

   => Energetics <=

    Nuclear Repulsion Energy =             11.9475428385057647
    One-Electron Energy =                 -99.6107294462343020
    Two-Electron Energy =                  31.4391976499588139
    Total Energy =                        -56.2239889577697198
 Dipole X            :         -0.0000127            0.0000153            0.0000026
 Dipole Y            :         40.9792887          -41.5857310           -0.6064423
 Dipole Z            :          0.0000000            0.0000000            0.0000000
 Magnitude           :                                                    0.6064423
  Basis Set: (THIS_BASIS AUX)
    Blend: AUG-CC-PVQZ-RI
	 Reference Energy          =     -56.2239889577697198 [Eh]
	 Singles Energy            =      -0.0000000000000000 [Eh]
	 Same-Spin Energy          =      -0.0594336818252398 [Eh]
	 Opposite-Spin Energy      =      -0.2250886860437967 [Eh]
	 Correlation Energy        =      -0.2845223678690366 [Eh]
	 Total Energy              =     -56.5085113256387572 [Eh]

	 ================> DF-SCS-MP2 Energies <==================
	-----------------------------------------------------------
	 SCS Same-Spin Scale       =       0.3333333333333333 [-]
	 SCS Opposite-Spin Scale   =       1.2000000000000000 [-]
	 SCS Same-Spin Energy      =      -0.0198112272750799 [Eh]
	 SCS Opposite-Spin Energy  =      -0.2701064232525560 [Eh]
	 SCS Correlation Energy    =      -0.2899176505276360 [Eh]
	 SCS Total Energy          =     -56.5139066082973542 [Eh]
	-----------------------------------------------------------

    SAPT Results
  --------------------------------------------------------------------------------------------------------
    Electrostatics                -28.16652547 [mEh]     -17.67476158 [kcal/mol]     -73.95120244 [kJ/mol]
      Elst10,r                    -28.70999936 [mEh]     -18.01579659 [kcal/mol]     -75.37809293 [kJ/mol]
      Elst12,r                      0.54347389 [mEh]       0.34103501 [kcal/mol]       1.42689049 [kJ/mol]

    Exchange                       36.06529543 [mEh]      22.63131456 [kcal/mol]      94.68942012 [kJ/mol]
      Exch10                       34.68070706 [mEh]      21.76247223 [kcal/mol]      91.05418383 [kJ/mol]
      Exch10(S^2)                  33.77300299 [mEh]      21.19287933 [kcal/mol]      88.67100713 [kJ/mol]
      Exch11(S^2)                   1.62455953 [mEh]       1.01942650 [kcal/mol]       4.26528046 [kJ/mol]
      Exch12(S^2)                  -0.23997115 [mEh]      -0.15058417 [kcal/mol]      -0.63004417 [kJ/mol]

    Induction                     -16.14838920 [mEh]     -10.13326721 [kcal/mol]     -42.39759001 [kJ/mol]
      Ind20,r                     -17.83132170 [mEh]     -11.18932330 [kcal/mol]     -46.81612867 [kJ/mol]
      Ind22                        -0.83182327 [mEh]      -0.52197698 [kcal/mol]      -2.18395169 [kJ/mol]
      Exch-Ind20,r                 10.38852759 [mEh]       6.51889948 [kcal/mol]      27.27507542 [kJ/mol]
      Exch-Ind22                    0.48462022 [mEh]       0.30410378 [kcal/mol]       1.27237020 [kJ/mol]
      delta HF,r (2)               -8.68377000 [mEh]      -5.44914794 [kcal/mol]     -22.79923500 [kJ/mol]
      delta MP2,r (2)               0.32537796 [mEh]       0.20417775 [kcal/mol]       0.85427972 [kJ/mol]

    Dispersion                     -8.58681170 [mEh]      -5.38830569 [kcal/mol]     -22.54467100 [kJ/mol]
      Disp20                      -10.50506134 [mEh]      -6.59202552 [kcal/mol]     -27.58103476 [kJ/mol]
      Disp21                        0.70158702 [mEh]       0.44025250 [kcal/mol]       1.84201645 [kJ/mol]
      Disp22 (SDQ)                  0.54766669 [mEh]       0.34366604 [kcal/mol]       1.43789870 [kJ/mol]
      Disp22 (T)                   -1.38799787 [mEh]      -0.87098181 [kcal/mol]      -3.64418791 [kJ/mol]
      Est. Disp22 (T)              -1.61144540 [mEh]      -1.01119726 [kcal/mol]      -4.23084931 [kJ/mol]
      Exch-Disp20                   2.28044134 [mEh]       1.43099855 [kcal/mol]       5.98729792 [kJ/mol]

  Total HF                        -10.15585641 [mEh]      -6.37289611 [kcal/mol]     -26.66419734 [kJ/mol]
  Total SAPT0                     -18.38047642 [mEh]     -11.53392308 [kcal/mol]     -48.25793418 [kJ/mol]
  Total SAPT2                     -16.79961720 [mEh]     -10.54191895 [kcal/mol]     -44.10738889 [kJ/mol]
  Total SAPT2+                    -17.16180890 [mEh]     -10.76919767 [kcal/mol]     -45.05832305 [kJ/mol]
  Total SAPT2+dMP2                -16.83643094 [mEh]     -10.56501992 [kcal/mol]     -44.20404333 [kJ/mol]

  Special recipe for scaled SAPT0 (see Manual):
    Electrostatics sSAPT0         -28.70999936 [mEh]     -18.01579659 [kcal/mol]     -75.37809293 [kJ/mol]
    Exchange sSAPT0                34.68070706 [mEh]      21.76247223 [kcal/mol]      91.05418383 [kJ/mol]
    Induction sSAPT0              -15.26622446 [mEh]      -9.57970048 [kcal/mol]     -40.08146679 [kJ/mol]
    Dispersion sSAPT0              -8.03576223 [mEh]      -5.04251693 [kcal/mol]     -21.09789084 [kJ/mol]
  Total sSAPT0                    -17.33127899 [mEh]     -10.87554176 [kcal/mol]     -45.50326673 [kJ/mol]
  --------------------------------------------------------------------------------------------------------

*** Psi4 exiting successfully. Buy a developer a beer!
