                               Psi4 1.9.1 release

  ==> Input File <==

--------------------------------------------------------------------------
#charge=0 charge_a=0 charge_b=0 selection_a=1-2 selection_b=3-6 scaling=0.8 benchmark_Eint=-4.975 benchmark_unit=kcal/mol group=XH-N
set_num_threads(4)
memory 8 GB
basis this_basis {
    assign    aug-cc-pVQZ
}

molecule {
     0 1
    --
     0 1
     H        0.00000       -0.31269        0.00000
    Cl       -0.00000        1.03066        0.00000
    --
     0 1
     N        0.00000       -1.69013        0.00000
     H       -0.47318       -2.04913        0.81958
     H       -0.47318       -2.04913       -0.81958
     H        0.94637       -2.04913        0.00000
}

set {
    scf_type                DF
    freeze_core             false
    do_ind_exch_sinf        true
    do_disp_exch_sinf       true
}

nrg = energy('sapt2+dmp2')
--------------------------------------------------------------------------

  //              Dimer HF             //
    Molecular point group: c1
  Charge       = 0
  Multiplicity = 1
  Basis Set: THIS_BASIS
    Blend: AUG-CC-PVQZ
  Basis Set: (THIS_BASIS AUX)
    Blend: AUG-CC-PVQZ-JKFIT
  @DF-RHF Final Energy:  -516.33094790748453
    Total Energy =                       -516.3309479074844148
 Dipole X            :         -0.0000054            0.0000088            0.0000034
 Dipole Y            :          5.0328602           -7.3079513           -2.2750911
 Dipole Z            :         -0.0000000            0.0000000           -0.0000000
 Magnitude           :                                                    2.2750911
  Basis Set: (THIS_BASIS AUX)
    Blend: AUG-CC-PVQZ-RI
	 Reference Energy          =    -516.3309479074845285 [Eh]
	 Singles Energy            =      -0.0000000000000000 [Eh]
	 Same-Spin Energy          =      -0.1361820258538176 [Eh]
	 Opposite-Spin Energy      =      -0.4505337470649727 [Eh]
	 Correlation Energy        =      -0.5867157729187903 [Eh]
	 Total Energy              =    -516.9176636804032796 [Eh]
	 SCS Total Energy          =    -516.9169824125804098 [Eh]
  //            Monomer A HF           //
    Molecular point group: c1
  Multiplicity = 1
  Basis Set: THIS_BASIS
    Blend: AUG-CC-PVQZ
  Basis Set: (THIS_BASIS AUX)
    Blend: AUG-CC-PVQZ-JKFIT
  @DF-RHF Final Energy:  -460.10803370211846
    Total Energy =                       -460.1080337021184050
  Basis Set: (THIS_BASIS AUX)
	 Singles Energy            =      -0.0000000000000000 [Eh]
	 Same-Spin Energy          =      -0.0695783525781991 [Eh]
	 Opposite-Spin Energy      =      -0.2208820302558457 [Eh]
	 Correlation Energy        =      -0.2904603828340449 [Eh]
	 Total Energy              =    -460.3984940849525174 [Eh]
	 SCS Total Energy          =    -460.3962849226182357 [Eh]
  //            Monomer B HF           //
    Molecular point group: c1

    Geometry (in Angstrom), charge = 0, multiplicity = 1:

       Center              X                  Y                   Z               Mass
    ------------   -----------------  -----------------  -----------------  -----------------
      Gh(H)          -0.000000190144    -0.423312546139     0.000000000000     1.007825032230
      Gh(CL)         -0.000000190144     0.920037453861     0.000000000000    34.968852682000
         N           -0.000000190144    -1.800752546139     0.000000000000    14.003074004430
         H           -0.473180190144    -2.159752546139     0.819580000000     1.007825032230
         H           -0.473180190144    -2.159752546139    -0.819580000000     1.007825032230
         H            0.946369809856    -2.159752546139     0.000000000000     1.007825032230

  Charge       = 0
  Multiplicity = 1
  Basis Set: THIS_BASIS
    Blend: AUG-CC-PVQZ
  Basis Set: (THIS_BASIS AUX)
    Blend: AUG-CC-PVQZ-JKFIT

    Orbital Energies [Eh]
    ---------------------

    Doubly Occupied:

       1A    -15.539196     2A     -1.139718     3A     -0.630909
       4A     -0.630907     5A     -0.425445

  @DF-RHF Final Energy:   -56.22399478062119

   => Energetics <=

    Nuclear Repulsion Energy =             11.9475813113965259
    One-Electron Energy =                 -99.6107980412519254
    Two-Electron Energy =                  31.4392219492342164
    Total Energy =                        -56.2239947806211902
 Dipole X            :         -0.0000127            0.0000153            0.0000026
 Dipole Y            :         35.4581450          -36.0645264           -0.6063814
 Dipole Z            :         -0.0000000            0.0000000           -0.0000000
 Magnitude           :                                                    0.6063814
  Basis Set: (THIS_BASIS AUX)
    Blend: AUG-CC-PVQZ-RI
	 Reference Energy          =     -56.2239947806211902 [Eh]
	 Singles Energy            =      -0.0000000000000000 [Eh]
	 Same-Spin Energy          =      -0.0594790311950324 [Eh]
	 Opposite-Spin Energy      =      -0.2254616455249487 [Eh]
	 Correlation Energy        =      -0.2849406767199810 [Eh]
	 Total Energy              =     -56.5089354573411740 [Eh]

	 ================> DF-SCS-MP2 Energies <==================
	-----------------------------------------------------------
	 SCS Same-Spin Scale       =       0.3333333333333333 [-]
	 SCS Opposite-Spin Scale   =       1.2000000000000000 [-]
	 SCS Same-Spin Energy      =      -0.0198263437316775 [Eh]
	 SCS Opposite-Spin Energy  =      -0.2705539746299384 [Eh]
	 SCS Correlation Energy    =      -0.2903803183616158 [Eh]
	 SCS Total Energy          =     -56.5143750989828035 [Eh]
	-----------------------------------------------------------

    SAPT Results
  --------------------------------------------------------------------------------------------------------
    Electrostatics                -67.16399303 [mEh]     -42.14604193 [kcal/mol]    -176.33903942 [kJ/mol]
      Elst10,r                    -69.04138740 [mEh]     -43.32412468 [kcal/mol]    -181.26813765 [kJ/mol]
      Elst12,r                      1.87739437 [mEh]       1.17808275 [kcal/mol]       4.92909823 [kJ/mol]

    Exchange                      129.99412209 [mEh]      81.57254315 [kcal/mol]     341.29952052 [kJ/mol]
      Exch10                      128.00168987 [mEh]      80.32227306 [kcal/mol]     336.06839047 [kJ/mol]
      Exch10(S^2)                 117.84911083 [mEh]      73.95143352 [kcal/mol]     309.41279787 [kJ/mol]
      Exch11(S^2)                   4.98993737 [mEh]       3.13123297 [kcal/mol]      13.10107877 [kJ/mol]
      Exch12(S^2)                  -2.99750516 [mEh]      -1.88096288 [kcal/mol]      -7.86994871 [kJ/mol]

    Induction                     -52.33763635 [mEh]     -32.84236264 [kcal/mol]    -137.41244530 [kJ/mol]
      Ind20,r                     -75.08566080 [mEh]     -47.11696349 [kcal/mol]    -197.13737526 [kJ/mol]
      Ind22                        -2.54343572 [mEh]      -1.59603001 [kcal/mol]      -6.67778956 [kJ/mol]
      Exch-Ind20,r                 43.83827512 [mEh]      27.50893295 [kcal/mol]     115.09737548 [kJ/mol]
      Exch-Ind22                    1.48496842 [mEh]       0.93183175 [kcal/mol]       3.89878404 [kJ/mol]
      delta HF,r (2)              -26.63234154 [mEh]     -16.71204663 [kcal/mol]     -69.92320309 [kJ/mol]
      delta MP2,r (2)               6.60055817 [mEh]       4.14191278 [kcal/mol]      17.32976309 [kJ/mol]

    Dispersion                    -20.54226388 [mEh]     -12.89046520 [kcal/mol]     -53.93370638 [kJ/mol]
      Disp20                      -26.41545864 [mEh]     -16.57595055 [kcal/mol]     -69.35377710 [kJ/mol]
      Disp21                        2.68086447 [mEh]       1.68226786 [kcal/mol]       7.03860871 [kJ/mol]
      Disp22 (SDQ)                  1.15446152 [mEh]       0.72443554 [kcal/mol]       3.03103831 [kJ/mol]
      Disp22 (T)                   -3.22060064 [mEh]      -2.02095741 [kcal/mol]      -8.45568581 [kJ/mol]
      Est. Disp22 (T)              -3.65095906 [mEh]      -2.29101140 [kcal/mol]      -9.58559169 [kJ/mol]
      Exch-Disp20                   5.68882782 [mEh]       3.56979335 [kcal/mol]      14.93601539 [kJ/mol]

  Total HF                          1.08057526 [mEh]       0.67807121 [kcal/mol]       2.83704994 [kJ/mol]
  Total SAPT0                     -19.64605556 [mEh]     -12.32808599 [kcal/mol]     -51.58071177 [kJ/mol]
  Total SAPT2                     -16.83469628 [mEh]     -10.56393140 [kcal/mol]     -44.19948899 [kJ/mol]
  Total SAPT2+                    -16.65032934 [mEh]     -10.44823940 [kcal/mol]     -43.71543366 [kJ/mol]
  Total SAPT2+dMP2                -10.04977117 [mEh]      -6.30632662 [kcal/mol]     -26.38567057 [kJ/mol]

  Special recipe for scaled SAPT0 (see Manual):
    Electrostatics sSAPT0         -69.04138740 [mEh]     -43.32412468 [kcal/mol]    -181.26813765 [kJ/mol]
    Exchange sSAPT0               128.00168987 [mEh]      80.32227306 [kcal/mol]     336.06839047 [kJ/mol]
    Induction sSAPT0              -45.54577600 [mEh]     -28.58040593 [kcal/mol]    -119.58041840 [kJ/mol]
    Dispersion sSAPT0             -19.12607229 [mEh]     -12.00179156 [kcal/mol]     -50.21549589 [kJ/mol]
  Total sSAPT0                     -5.71154582 [mEh]      -3.58404911 [kcal/mol]     -14.99566147 [kJ/mol]
  --------------------------------------------------------------------------------------------------------

*** Psi4 exiting successfully. Buy a developer a beer!
