                               Psi4 1.9.1 release

  ==> Input File <==

--------------------------------------------------------------------------
#charge=0 charge_a=0 charge_b=0 selection_a=1-2 selection_b=3-6 scaling=0.85 benchmark_Eint=-7.319 benchmark_unit=kcal/mol group=XH-N
set_num_threads(4)
memory 8 GB
basis this_basis {
    assign    aug-cc-pVQZ
}

molecule {
     0 1
    --
     0 1
     H        0.00000       -0.31269        0.00000
    Cl       -0.00000        1.03066        0.00000
    --
     0 1
     N        0.00000       -1.77621        0.00000
     H       -0.47318       -2.13522        0.81958
     H       -0.47318       -2.13522       -0.81958
     H        0.94637       -2.13522        0.00000
}

set {
    scf_type                DF
    freeze_core             false
    do_ind_exch_sinf        true
    do_disp_exch_sinf       true
}

nrg = energy('sapt2+dmp2')
--------------------------------------------------------------------------

  //              Dimer HF             //
    Molecular point group: c1
  Charge       = 0
  Multiplicity = 1
  Basis Set: THIS_BASIS
    Blend: AUG-CC-PVQZ
  Basis Set: (THIS_BASIS AUX)
    Blend: AUG-CC-PVQZ-JKFIT
  @DF-RHF Final Energy:  -516.33543044387932
    Total Energy =                       -516.3354304438794316
 Dipole X            :         -0.0000055            0.0000088            0.0000033
 Dipole Y            :          5.3236085           -7.4715222           -2.1479137
 Dipole Z            :          0.0000000            0.0000000            0.0000000
 Magnitude           :                                                    2.1479137
  Basis Set: (THIS_BASIS AUX)
    Blend: AUG-CC-PVQZ-RI
	 Reference Energy          =    -516.3354304438793179 [Eh]
	 Singles Energy            =      -0.0000000000000000 [Eh]
	 Same-Spin Energy          =      -0.1354372592005801 [Eh]
	 Opposite-Spin Energy      =      -0.4500534018907229 [Eh]
	 Correlation Energy        =      -0.5854906610913031 [Eh]
	 Total Energy              =    -516.9209211049706028 [Eh]
	 SCS Total Energy          =    -516.9206402792150357 [Eh]
  //            Monomer A HF           //
    Molecular point group: c1
  Multiplicity = 1
  Basis Set: THIS_BASIS
    Blend: AUG-CC-PVQZ
  Basis Set: (THIS_BASIS AUX)
    Blend: AUG-CC-PVQZ-JKFIT
  @DF-RHF Final Energy:  -460.10803073330555
    Total Energy =                       -460.1080307333055543
  Basis Set: (THIS_BASIS AUX)
	 Singles Energy            =      -0.0000000000000000 [Eh]
	 Same-Spin Energy          =      -0.0695446453186141 [Eh]
	 Opposite-Spin Energy      =      -0.2207648904446615 [Eh]
	 Correlation Energy        =      -0.2903095357632756 [Eh]
	 Total Energy              =    -460.3983402690688536 [Eh]
	 SCS Total Energy          =    -460.3961301502786796 [Eh]
  //            Monomer B HF           //
    Molecular point group: c1

    Geometry (in Angstrom), charge = 0, multiplicity = 1:

       Center              X                  Y                   Z               Mass
    ------------   -----------------  -----------------  -----------------  -----------------
      Gh(H)          -0.000000190144    -0.395659973467     0.000000000000     1.007825032230
      Gh(CL)         -0.000000190144     0.947690026533     0.000000000000    34.968852682000
         N           -0.000000190144    -1.859179973467     0.000000000000    14.003074004430
         H           -0.473180190144    -2.218189973467     0.819580000000     1.007825032230
         H           -0.473180190144    -2.218189973467    -0.819580000000     1.007825032230
         H            0.946369809856    -2.218189973467     0.000000000000     1.007825032230

  Charge       = 0
  Multiplicity = 1
  Basis Set: THIS_BASIS
    Blend: AUG-CC-PVQZ
  Basis Set: (THIS_BASIS AUX)
    Blend: AUG-CC-PVQZ-JKFIT

    Orbital Energies [Eh]
    ---------------------

    Doubly Occupied:

       1A    -15.539200     2A     -1.139717     3A     -0.630907
       4A     -0.630905     5A     -0.425447

  @DF-RHF Final Energy:   -56.22399441816893

   => Energetics <=

    Nuclear Repulsion Energy =             11.9475428385057629
    One-Electron Energy =                 -99.6107216687749712
    Two-Electron Energy =                  31.4391844121002748
    Total Energy =                        -56.2239944181689282
 Dipole X            :         -0.0000127            0.0000153            0.0000026
 Dipole Y            :         36.5623000          -37.1687014           -0.6064015
 Dipole Z            :          0.0000000            0.0000000            0.0000000
 Magnitude           :                                                    0.6064015
  Basis Set: (THIS_BASIS AUX)
    Blend: AUG-CC-PVQZ-RI
	 Reference Energy          =     -56.2239944181689282 [Eh]
	 Singles Energy            =      -0.0000000000000000 [Eh]
	 Same-Spin Energy          =      -0.0594714647178015 [Eh]
	 Opposite-Spin Energy      =      -0.2253917958124510 [Eh]
	 Correlation Energy        =      -0.2848632605302525 [Eh]
	 Total Energy              =     -56.5088576786991794 [Eh]

	 ================> DF-SCS-MP2 Energies <==================
	-----------------------------------------------------------
	 SCS Same-Spin Scale       =       0.3333333333333333 [-]
	 SCS Opposite-Spin Scale   =       1.2000000000000000 [-]
	 SCS Same-Spin Energy      =      -0.0198238215726005 [Eh]
	 SCS Opposite-Spin Energy  =      -0.2704701549749412 [Eh]
	 SCS Correlation Energy    =      -0.2902939765475417 [Eh]
	 SCS Total Energy          =     -56.5142883947164734 [Eh]
	-----------------------------------------------------------

    SAPT Results
  --------------------------------------------------------------------------------------------------------
    Electrostatics                -56.32393251 [mEh]     -35.34380125 [kcal/mol]    -147.87846444 [kJ/mol]
      Elst10,r                    -57.77504560 [mEh]     -36.25438846 [kcal/mol]    -151.68836134 [kJ/mol]
      Elst12,r                      1.45111309 [mEh]       0.91058721 [kcal/mol]       3.80989689 [kJ/mol]

    Exchange                      101.09359212 [mEh]      63.43718679 [kcal/mol]     265.42118953 [kJ/mol]
      Exch10                       99.10060198 [mEh]      62.18656660 [kcal/mol]     260.18859465 [kJ/mol]
      Exch10(S^2)                  92.75120390 [mEh]      58.20225915 [kcal/mol]     243.51825230 [kJ/mol]
      Exch11(S^2)                   4.06310901 [mEh]       2.54963939 [kcal/mol]      10.66769122 [kJ/mol]
      Exch12(S^2)                  -2.07011887 [mEh]      -1.29901920 [kcal/mol]      -5.43509634 [kJ/mol]

    Induction                     -41.42348155 [mEh]     -25.99362711 [kcal/mol]    -108.75733583 [kJ/mol]
      Ind20,r                     -55.78730072 [mEh]     -35.00705972 [kcal/mol]    -146.46953787 [kJ/mol]
      Ind22                        -2.01671125 [mEh]      -1.26550542 [kcal/mol]      -5.29487467 [kJ/mol]
      Exch-Ind20,r                 33.14494888 [mEh]      20.79876943 [kcal/mol]      87.02205129 [kJ/mol]
      Exch-Ind22                    1.19819010 [mEh]       0.75187564 [kcal/mol]       3.14584767 [kJ/mol]
      delta HF,r (2)              -22.08849694 [mEh]     -13.86074109 [kcal/mol]     -57.99334071 [kJ/mol]
      delta MP2,r (2)               4.12588838 [mEh]       2.58903405 [kcal/mol]      10.83251846 [kJ/mol]

    Dispersion                    -17.11370825 [mEh]     -10.73901406 [kcal/mol]     -44.93203482 [kJ/mol]
      Disp20                      -21.94754187 [mEh]     -13.77229045 [kcal/mol]     -57.62326324 [kJ/mol]
      Disp21                        2.04518018 [mEh]       1.28336994 [kcal/mol]       5.36961982 [kJ/mol]
      Disp22 (SDQ)                  1.01084009 [mEh]       0.63431173 [kcal/mol]       2.65396028 [kJ/mol]
      Disp22 (T)                   -2.72036175 [mEh]      -1.70705277 [kcal/mol]      -7.14230880 [kJ/mol]
      Est. Disp22 (T)              -3.10039326 [mEh]      -1.94552615 [kcal/mol]      -8.14008139 [kJ/mol]
      Exch-Disp20                   4.87820662 [mEh]       3.06112087 [kcal/mol]      12.80772970 [kJ/mol]

  Total HF                         -3.40529240 [mEh]      -2.13685325 [kcal/mol]      -8.94059398 [kJ/mol]
  Total SAPT0                     -20.47462766 [mEh]     -12.84802283 [kcal/mol]     -53.75612751 [kJ/mol]
  Total SAPT2                     -17.84904559 [mEh]     -11.20044520 [kcal/mol]     -46.86266273 [kJ/mol]
  Total SAPT2+                    -17.89341858 [mEh]     -11.22828968 [kcal/mol]     -46.97916402 [kJ/mol]
  Total SAPT2+dMP2                -13.76753020 [mEh]      -8.63925563 [kcal/mol]     -36.14664556 [kJ/mol]

  Special recipe for scaled SAPT0 (see Manual):
    Electrostatics sSAPT0         -57.77504560 [mEh]     -36.25438846 [kcal/mol]    -151.68836134 [kJ/mol]
    Exchange sSAPT0                99.10060198 [mEh]      62.18656660 [kcal/mol]     260.18859465 [kJ/mol]
    Induction sSAPT0              -37.44730355 [mEh]     -23.49853774 [kcal/mol]     -98.31788191 [kJ/mol]
    Dispersion sSAPT0             -15.99735778 [mEh]     -10.03849356 [kcal/mol]     -42.00105707 [kJ/mol]
  Total sSAPT0                    -12.11910495 [mEh]      -7.60485317 [kcal/mol]     -31.81870567 [kJ/mol]
  --------------------------------------------------------------------------------------------------------

*** Psi4 exiting successfully. Buy a developer a beer!
