                               Psi4 1.9.1 release

  ==> Input File <==

--------------------------------------------------------------------------
#charge=0 charge_a=0 charge_b=0 selection_a=1-2 selection_b=3-6 scaling=0.95 benchmark_Eint=-9.424 benchmark_unit=kcal/mol group=XH-N
set_num_threads(4)
memory 8 GB
basis this_basis {
    assign    aug-cc-pVQZ
}

molecule {
     0 1
    --
     0 1
     H        0.00000       -0.31269        0.00000
    Cl       -0.00000        1.03066        0.00000
    --
     0 1
     N        0.00000       -1.94839        0.00000
     H       -0.47318       -2.30740        0.81958
     H       -0.47318       -2.30740       -0.81958
     H        0.94637       -2.30740        0.00000
}

set {
    scf_type                DF
    freeze_core             false
    do_ind_exch_sinf        true
    do_disp_exch_sinf       true
}

nrg = energy('sapt2+dmp2')
--------------------------------------------------------------------------

  //              Dimer HF             //
    Molecular point group: c1
  Charge       = 0
  Multiplicity = 1
  Basis Set: THIS_BASIS
    Blend: AUG-CC-PVQZ
  Basis Set: (THIS_BASIS AUX)
    Blend: AUG-CC-PVQZ-JKFIT
  @DF-RHF Final Energy:  -516.34037131781417
    Total Energy =                       -516.3403713178141743
 Dipole X            :         -0.0000057            0.0000088            0.0000031
 Dipole Y            :          5.8700929           -7.7986488           -1.9285559
 Dipole Z            :         -0.0000000            0.0000000           -0.0000000
 Magnitude           :                                                    1.9285559
  Basis Set: (THIS_BASIS AUX)
    Blend: AUG-CC-PVQZ-RI
	 Reference Energy          =    -516.3403713178141743 [Eh]
	 Singles Energy            =      -0.0000000000000000 [Eh]
	 Same-Spin Energy          =      -0.1339974553368697 [Eh]
	 Opposite-Spin Energy      =      -0.4489984480722427 [Eh]
	 Correlation Energy        =      -0.5829959034091123 [Eh]
	 Total Energy              =    -516.9233672212233159 [Eh]
	 SCS Total Energy          =    -516.9238352739464517 [Eh]
  //            Monomer A HF           //
    Molecular point group: c1
  Multiplicity = 1
  Basis Set: THIS_BASIS
    Blend: AUG-CC-PVQZ
  Basis Set: (THIS_BASIS AUX)
    Blend: AUG-CC-PVQZ-JKFIT
  @DF-RHF Final Energy:  -460.10802624032198
    Total Energy =                       -460.1080262403220331
  Basis Set: (THIS_BASIS AUX)
	 Singles Energy            =      -0.0000000000000000 [Eh]
	 Same-Spin Energy          =      -0.0694916196755501 [Eh]
	 Opposite-Spin Energy      =      -0.2205848763608718 [Eh]
	 Correlation Energy        =      -0.2900764960364219 [Eh]
	 Total Energy              =    -460.3981027363583962 [Eh]
	 SCS Total Energy          =    -460.3958919651802262 [Eh]
  //            Monomer B HF           //
    Molecular point group: c1

    Geometry (in Angstrom), charge = 0, multiplicity = 1:

       Center              X                  Y                   Z               Mass
    ------------   -----------------  -----------------  -----------------  -----------------
      Gh(H)          -0.000000190144    -0.340349544265     0.000000000000     1.007825032230
      Gh(CL)         -0.000000190144     1.003000455735     0.000000000000    34.968852682000
         N           -0.000000190144    -1.976049544265     0.000000000000    14.003074004430
         H           -0.473180190144    -2.335059544265     0.819580000000     1.007825032230
         H           -0.473180190144    -2.335059544265    -0.819580000000     1.007825032230
         H            0.946369809856    -2.335059544265     0.000000000000     1.007825032230

  Charge       = 0
  Multiplicity = 1
  Basis Set: THIS_BASIS
    Blend: AUG-CC-PVQZ
  Basis Set: (THIS_BASIS AUX)
    Blend: AUG-CC-PVQZ-JKFIT

    Orbital Energies [Eh]
    ---------------------

    Doubly Occupied:

       1A    -15.539195     2A     -1.139717     3A     -0.630907
       4A     -0.630905     5A     -0.425447

  @DF-RHF Final Energy:   -56.22399199810727

   => Energetics <=

    Nuclear Repulsion Energy =             11.9475428385057629
    One-Electron Energy =                 -99.6107244713193154
    Two-Electron Energy =                  31.4391896347062740
    Total Energy =                        -56.2239919981072731
 Dipole X            :         -0.0000127            0.0000153            0.0000026
 Dipole Y            :         38.7707901          -39.3772162           -0.6064262
 Dipole Z            :         -0.0000000            0.0000000           -0.0000000
 Magnitude           :                                                    0.6064262
  Basis Set: (THIS_BASIS AUX)
    Blend: AUG-CC-PVQZ-RI
	 Reference Energy          =     -56.2239919981072731 [Eh]
	 Singles Energy            =      -0.0000000000000000 [Eh]
	 Same-Spin Energy          =      -0.0594515311747778 [Eh]
	 Opposite-Spin Energy      =      -0.2252337343609055 [Eh]
	 Correlation Energy        =      -0.2846852655356833 [Eh]
	 Total Energy              =     -56.5086772636429586 [Eh]

	 ================> DF-SCS-MP2 Energies <==================
	-----------------------------------------------------------
	 SCS Same-Spin Scale       =       0.3333333333333333 [-]
	 SCS Opposite-Spin Scale   =       1.2000000000000000 [-]
	 SCS Same-Spin Energy      =      -0.0198171770582593 [Eh]
	 SCS Opposite-Spin Energy  =      -0.2702804812330866 [Eh]
	 SCS Correlation Energy    =      -0.2900976582913459 [Eh]
	 SCS Total Energy          =     -56.5140896563986175 [Eh]
	-----------------------------------------------------------

    SAPT Results
  --------------------------------------------------------------------------------------------------------
    Electrostatics                -39.60968403 [mEh]     -24.85545198 [kcal/mol]    -103.99521110 [kJ/mol]
      Elst10,r                    -40.47898433 [mEh]     -25.40094616 [kcal/mol]    -106.27755872 [kJ/mol]
      Elst12,r                      0.86930030 [mEh]       0.54549417 [kcal/mol]       2.28234762 [kJ/mol]

    Exchange                       60.64660803 [mEh]      38.05632109 [kcal/mol]     159.22764745 [kJ/mol]
      Exch10                       58.89450315 [mEh]      36.95685868 [kcal/mol]     154.62749672 [kJ/mol]
      Exch10(S^2)                  56.46513259 [mEh]      35.43240564 [kcal/mol]     148.24918519 [kJ/mol]
      Exch11(S^2)                   2.61160530 [mEh]       1.63880707 [kcal/mol]       6.85676877 [kJ/mol]
      Exch12(S^2)                  -0.85950042 [mEh]      -0.53934465 [kcal/mol]      -2.25661804 [kJ/mol]

    Induction                     -25.87543184 [mEh]     -16.23707862 [kcal/mol]     -67.93593694 [kJ/mol]
      Ind20,r                     -31.23263147 [mEh]     -19.59877214 [kcal/mol]     -82.00126262 [kJ/mol]
      Ind22                        -1.28821816 [mEh]      -0.80836910 [kcal/mol]      -3.38221631 [kJ/mol]
      Exch-Ind20,r                 18.67619602 [mEh]      11.71948994 [kcal/mol]      49.03434590 [kJ/mol]
      Exch-Ind22                    0.77031661 [mEh]       0.48338097 [kcal/mol]       2.02246599 [kJ/mol]
      delta HF,r (2)              -14.21216276 [mEh]      -8.91826677 [kcal/mol]     -37.31402818 [kJ/mol]
      delta MP2,r (2)               1.41106791 [mEh]       0.88545848 [kcal/mol]       3.70475828 [kJ/mol]

    Dispersion                    -12.03735049 [mEh]      -7.55355147 [kcal/mol]     -31.60405936 [kJ/mol]
      Disp20                      -15.16249887 [mEh]      -9.51461169 [kcal/mol]     -39.80913530 [kJ/mol]
      Disp21                        1.19203168 [mEh]       0.74801117 [kcal/mol]       3.12967874 [kJ/mol]
      Disp22 (SDQ)                  0.75403478 [mEh]       0.47316397 [kcal/mol]       1.97971803 [kJ/mol]
      Disp22 (T)                   -1.94238361 [mEh]      -1.21886412 [kcal/mol]      -5.09972747 [kJ/mol]
      Est. Disp22 (T)              -2.23470357 [mEh]      -1.40229766 [kcal/mol]      -5.86721342 [kJ/mol]
      Exch-Disp20                   3.41378549 [mEh]       2.14218274 [kcal/mol]       8.96289258 [kJ/mol]

  Total HF                         -8.35307938 [mEh]      -5.24163645 [kcal/mol]     -21.93100690 [kJ/mol]
  Total SAPT0                     -20.10179276 [mEh]     -12.61406540 [kcal/mol]     -52.77724963 [kJ/mol]
  Total SAPT2                     -17.99828913 [mEh]     -11.29409694 [kcal/mol]     -47.25450160 [kJ/mol]
  Total SAPT2+                    -18.28692625 [mEh]     -11.47521947 [kcal/mol]     -48.01231824 [kJ/mol]
  Total SAPT2+dMP2                -16.87585834 [mEh]     -10.58976098 [kcal/mol]     -44.30755996 [kJ/mol]

  Special recipe for scaled SAPT0 (see Manual):
    Electrostatics sSAPT0         -40.47898433 [mEh]     -25.40094616 [kcal/mol]    -106.27755872 [kJ/mol]
    Exchange sSAPT0                58.89450315 [mEh]      36.95685868 [kcal/mol]     154.62749672 [kJ/mol]
    Induction sSAPT0              -24.25280845 [mEh]     -15.21886707 [kcal/mol]     -63.67573982 [kJ/mol]
    Dispersion sSAPT0             -11.28885707 [mEh]      -7.08386476 [kcal/mol]     -29.63889015 [kJ/mol]
  Total sSAPT0                    -17.12614671 [mEh]     -10.74681931 [kcal/mol]     -44.96469198 [kJ/mol]
  --------------------------------------------------------------------------------------------------------

*** Psi4 exiting successfully. Buy a developer a beer!
