                               Psi4 1.9.1 release

  ==> Input File <==

--------------------------------------------------------------------------
#charge=0 charge_a=0 charge_b=0 selection_a=1-2 selection_b=3-6 scaling=1.5 benchmark_Eint=-5.261 benchmark_unit=kcal/mol group=XH-N
set_num_threads(4)
memory 8 GB
basis this_basis {
    assign    aug-cc-pVQZ
}

molecule {
     0 1
    --
     0 1
     H        0.00000       -0.31269        0.00000
    Cl       -0.00000        1.03066        0.00000
    --
     0 1
     N        0.00000       -2.89538        0.00000
     H       -0.47318       -3.25439        0.81958
     H       -0.47318       -3.25439       -0.81958
     H        0.94637       -3.25439        0.00000
}

set {
    scf_type                DF
    freeze_core             false
    do_ind_exch_sinf        true
    do_disp_exch_sinf       true
}

nrg = energy('sapt2+dmp2')
--------------------------------------------------------------------------

  //              Dimer HF             //
    Molecular point group: c1
  Charge       = 0
  Multiplicity = 1
  Basis Set: THIS_BASIS
    Blend: AUG-CC-PVQZ
  Basis Set: (THIS_BASIS AUX)
    Blend: AUG-CC-PVQZ-JKFIT
  @DF-RHF Final Energy:  -516.33907537422658
    Total Energy =                       -516.3390753742265815
 Dipole X            :         -0.0000061            0.0000088            0.0000028
 Dipole Y            :          8.2420245           -9.5978456           -1.3558211
 Dipole Z            :         -0.0000000            0.0000000           -0.0000000
 Magnitude           :                                                    1.3558211
  Basis Set: (THIS_BASIS AUX)
    Blend: AUG-CC-PVQZ-RI
	 Reference Energy          =    -516.3390753742265815 [Eh]
	 Singles Energy            =      -0.0000000000000000 [Eh]
	 Same-Spin Energy          =      -0.1297372940346807 [Eh]
	 Opposite-Spin Energy      =      -0.4453646587662469 [Eh]
	 Correlation Energy        =      -0.5751019528009276 [Eh]
	 Total Energy              =    -516.9141773270274598 [Eh]
	 SCS Total Energy          =    -516.9167587294242594 [Eh]
  //            Monomer A HF           //
    Molecular point group: c1
  Multiplicity = 1
  Basis Set: THIS_BASIS
    Blend: AUG-CC-PVQZ
  Basis Set: (THIS_BASIS AUX)
    Blend: AUG-CC-PVQZ-JKFIT
  @DF-RHF Final Energy:  -460.10801345268663
    Total Energy =                       -460.1080134526866914
  Basis Set: (THIS_BASIS AUX)
	 Singles Energy            =      -0.0000000000000000 [Eh]
	 Same-Spin Energy          =      -0.0693072780833804 [Eh]
	 Opposite-Spin Energy      =      -0.2200144998438177 [Eh]
	 Correlation Energy        =      -0.2893217779271982 [Eh]
	 Total Energy              =    -460.3973352306138054 [Eh]
	 SCS Total Energy          =    -460.3951332785269983 [Eh]
  //            Monomer B HF           //
    Molecular point group: c1

    Geometry (in Angstrom), charge = 0, multiplicity = 1:

       Center              X                  Y                   Z               Mass
    ------------   -----------------  -----------------  -----------------  -----------------
      Gh(H)          -0.000000190144    -0.036142183656     0.000000000000     1.007825032230
      Gh(CL)         -0.000000190144     1.307207816344     0.000000000000    34.968852682000
         N           -0.000000190144    -2.618832183656     0.000000000000    14.003074004430
         H           -0.473180190144    -2.977842183656     0.819580000000     1.007825032230
         H           -0.473180190144    -2.977842183656    -0.819580000000     1.007825032230
         H            0.946369809856    -2.977842183656     0.000000000000     1.007825032230

  Charge       = 0
  Multiplicity = 1
  Basis Set: THIS_BASIS
    Blend: AUG-CC-PVQZ
  Basis Set: (THIS_BASIS AUX)
    Blend: AUG-CC-PVQZ-JKFIT

    Orbital Energies [Eh]
    ---------------------

    Doubly Occupied:

       1A    -15.539186     2A     -1.139727     3A     -0.630914
       4A     -0.630912     5A     -0.425447

  @DF-RHF Final Energy:   -56.22397716020584

   => Energetics <=

    Nuclear Repulsion Energy =             11.9475428385057612
    One-Electron Energy =                 -99.6106672623847658
    Two-Electron Energy =                  31.4391472636731564
    Total Energy =                        -56.2239771602058411
 Dipole X            :         -0.0000127            0.0000153            0.0000026
 Dipole Y            :         50.9177137          -51.5240477           -0.6063340
 Dipole Z            :         -0.0000000            0.0000000           -0.0000000
 Magnitude           :                                                    0.6063340
  Basis Set: (THIS_BASIS AUX)
    Blend: AUG-CC-PVQZ-RI
	 Reference Energy          =     -56.2239771602058411 [Eh]
	 Singles Energy            =      -0.0000000000000000 [Eh]
	 Same-Spin Energy          =      -0.0594002709055824 [Eh]
	 Opposite-Spin Energy      =      -0.2247895269733174 [Eh]
	 Correlation Energy        =      -0.2841897978788999 [Eh]
	 Total Energy              =     -56.5081669580847432 [Eh]

	 ================> DF-SCS-MP2 Energies <==================
	-----------------------------------------------------------
	 SCS Same-Spin Scale       =       0.3333333333333333 [-]
	 SCS Opposite-Spin Scale   =       1.2000000000000000 [-]
	 SCS Same-Spin Energy      =      -0.0198000903018608 [Eh]
	 SCS Opposite-Spin Energy  =      -0.2697474323679809 [Eh]
	 SCS Correlation Energy    =      -0.2895475226698417 [Eh]
	 SCS Total Energy          =     -56.5135246828756834 [Eh]
	-----------------------------------------------------------

    SAPT Results
  --------------------------------------------------------------------------------------------------------
    Electrostatics                 -7.94789712 [mEh]      -4.98738074 [kcal/mol]     -20.86720100 [kJ/mol]
      Elst10,r                     -8.14225000 [mEh]      -5.10933901 [kcal/mol]     -21.37747444 [kJ/mol]
      Elst12,r                      0.19435289 [mEh]       0.12195828 [kcal/mol]       0.51027343 [kJ/mol]

    Exchange                        3.24119931 [mEh]       2.03388327 [kcal/mol]       8.50976761 [kJ/mol]
      Exch10                        2.97387461 [mEh]       1.86613449 [kcal/mol]       7.80790672 [kJ/mol]
      Exch10(S^2)                   2.96489689 [mEh]       1.86050089 [kcal/mol]       7.78433571 [kJ/mol]
      Exch11(S^2)                   0.15083587 [mEh]       0.09465094 [kcal/mol]       0.39601953 [kJ/mol]
      Exch12(S^2)                   0.11648882 [mEh]       0.07309784 [kcal/mol]       0.30584137 [kJ/mol]

    Induction                      -2.07317511 [mEh]      -1.30093702 [kcal/mol]      -5.44312051 [kJ/mol]
      Ind20,r                      -1.86051966 [mEh]      -1.16749371 [kcal/mol]      -4.88479370 [kJ/mol]
      Ind22                        -0.11245103 [mEh]      -0.07056409 [kcal/mol]      -0.29524015 [kJ/mol]
      Exch-Ind20,r                  0.70930574 [mEh]       0.44509607 [kcal/mol]       1.86228195 [kJ/mol]
      Exch-Ind22                    0.04287091 [mEh]       0.02690190 [kcal/mol]       0.11255755 [kJ/mol]
      delta HF,r (2)               -0.76517202 [mEh]      -0.48015269 [kcal/mol]      -2.00895886 [kJ/mol]
      delta MP2,r (2)              -0.08720904 [mEh]      -0.05472450 [kcal/mol]      -0.22896731 [kJ/mol]

    Dispersion                     -2.06411940 [mEh]      -1.29525448 [kcal/mol]      -5.41934474 [kJ/mol]
      Disp20                       -2.17450667 [mEh]      -1.36452353 [kcal/mol]      -5.70916647 [kJ/mol]
      Disp21                        0.09775476 [mEh]       0.06134204 [kcal/mol]       0.25665508 [kJ/mol]
      Disp22 (SDQ)                  0.11413769 [mEh]       0.07162248 [kcal/mol]       0.29966846 [kJ/mol]
      Disp22 (T)                   -0.32141448 [mEh]      -0.20169063 [kcal/mol]      -0.84387359 [kJ/mol]
      Est. Disp22 (T)              -0.38074644 [mEh]      -0.23892200 [kcal/mol]      -0.99964964 [kJ/mol]
      Exch-Disp20                   0.27924126 [mEh]       0.17522654 [kcal/mol]       0.73314782 [kJ/mol]

  Total HF                         -7.08476133 [mEh]      -4.44575486 [kcal/mol]     -18.60103832 [kJ/mol]
  Total SAPT0                      -8.98002674 [mEh]      -5.63505186 [kcal/mol]     -23.57705696 [kJ/mol]
  Total SAPT2                      -8.58792929 [mEh]      -5.38900699 [kcal/mol]     -22.54760524 [kJ/mol]
  Total SAPT2+                     -8.75678328 [mEh]      -5.49496447 [kcal/mol]     -22.99093134 [kJ/mol]
  Total SAPT2+dMP2                 -8.84399232 [mEh]      -5.54968897 [kcal/mol]     -23.21989864 [kJ/mol]

  Special recipe for scaled SAPT0 (see Manual):
    Electrostatics sSAPT0          -8.14225000 [mEh]      -5.10933901 [kcal/mol]     -21.37747444 [kJ/mol]
    Exchange sSAPT0                 2.97387461 [mEh]       1.86613449 [kcal/mol]       7.80790672 [kJ/mol]
    Induction sSAPT0               -1.90992307 [mEh]      -1.19849482 [kcal/mol]      -5.01450233 [kJ/mol]
    Dispersion sSAPT0              -1.89272109 [mEh]      -1.18770041 [kcal/mol]      -4.96933853 [kJ/mol]
  Total sSAPT0                     -8.97101955 [mEh]      -5.62939976 [kcal/mol]     -23.55340858 [kJ/mol]
  --------------------------------------------------------------------------------------------------------

*** Psi4 exiting successfully. Buy a developer a beer!
