                               Psi4 1.9.1 release

  ==> Input File <==

--------------------------------------------------------------------------
#charge=0 charge_a=0 charge_b=0 selection_a=1-2 selection_b=3-6 scaling=1.1 benchmark_Eint=-9.339 benchmark_unit=kcal/mol group=XH-N
set_num_threads(4)
memory 8 GB
basis this_basis {
    assign    aug-cc-pVQZ
}

molecule {
     0 1
    --
     0 1
     H        0.00000       -0.31269        0.00000
    Cl       -0.00000        1.03066        0.00000
    --
     0 1
     N        0.00000       -2.20666        0.00000
     H       -0.47318       -2.56567        0.81958
     H       -0.47318       -2.56567       -0.81958
     H        0.94637       -2.56567        0.00000
}

set {
    scf_type                DF
    freeze_core             false
    do_ind_exch_sinf        true
    do_disp_exch_sinf       true
}

nrg = energy('sapt2+dmp2')
--------------------------------------------------------------------------

  //              Dimer HF             //
    Molecular point group: c1
  Charge       = 0
  Multiplicity = 1
  Basis Set: THIS_BASIS
    Blend: AUG-CC-PVQZ
  Basis Set: (THIS_BASIS AUX)
    Blend: AUG-CC-PVQZ-JKFIT
  @DF-RHF Final Energy:  -516.34238852502392
    Total Energy =                       -516.3423885250239209
 Dipole X            :         -0.0000059            0.0000088            0.0000030
 Dipole Y            :          6.6054084           -8.2893389           -1.6839305
 Dipole Z            :         -0.0000000            0.0000000           -0.0000000
 Magnitude           :                                                    1.6839305
  Basis Set: (THIS_BASIS AUX)
    Blend: AUG-CC-PVQZ-RI
	 Reference Energy          =    -516.3423885250239209 [Eh]
	 Singles Energy            =      -0.0000000000000000 [Eh]
	 Same-Spin Energy          =      -0.1322085733409857 [Eh]
	 Opposite-Spin Energy      =      -0.4475352147669470 [Eh]
	 Correlation Energy        =      -0.5797437881079327 [Eh]
	 Total Energy              =    -516.9221323131318968 [Eh]
	 SCS Total Energy          =    -516.9235003071912615 [Eh]
  //            Monomer A HF           //
    Molecular point group: c1
  Multiplicity = 1
  Basis Set: THIS_BASIS
    Blend: AUG-CC-PVQZ
  Basis Set: (THIS_BASIS AUX)
    Blend: AUG-CC-PVQZ-JKFIT
  @DF-RHF Final Energy:  -460.10802102728417
    Total Energy =                       -460.1080210272841668
  Basis Set: (THIS_BASIS AUX)
	 Singles Energy            =      -0.0000000000000000 [Eh]
	 Same-Spin Energy          =      -0.0694270994245654 [Eh]
	 Opposite-Spin Energy      =      -0.2203796062222697 [Eh]
	 Correlation Energy        =      -0.2898067056468351 [Eh]
	 Total Energy              =    -460.3978277329309776 [Eh]
	 SCS Total Energy          =    -460.3956189212257186 [Eh]
  //            Monomer B HF           //
    Molecular point group: c1

    Geometry (in Angstrom), charge = 0, multiplicity = 1:

       Center              X                  Y                   Z               Mass
    ------------   -----------------  -----------------  -----------------  -----------------
      Gh(H)          -0.000000190144    -0.257383900463     0.000000000000     1.007825032230
      Gh(CL)         -0.000000190144     1.085966099537     0.000000000000    34.968852682000
         N           -0.000000190144    -2.151353900463     0.000000000000    14.003074004430
         H           -0.473180190144    -2.510363900463     0.819580000000     1.007825032230
         H           -0.473180190144    -2.510363900463    -0.819580000000     1.007825032230
         H            0.946369809856    -2.510363900463     0.000000000000     1.007825032230

  Charge       = 0
  Multiplicity = 1
  Basis Set: THIS_BASIS
    Blend: AUG-CC-PVQZ
  Basis Set: (THIS_BASIS AUX)
    Blend: AUG-CC-PVQZ-JKFIT

    Orbital Energies [Eh]
    ---------------------

    Doubly Occupied:

       1A    -15.539185     2A     -1.139720     3A     -0.630908
       4A     -0.630906     5A     -0.425447

  @DF-RHF Final Energy:   -56.22398711270968

   => Energetics <=

    Nuclear Repulsion Energy =             11.9475428385057612
    One-Electron Energy =                 -99.6107251235885087
    Two-Electron Energy =                  31.4391951723730614
    Total Energy =                        -56.2239871127096791
 Dipole X            :         -0.0000127            0.0000153            0.0000026
 Dipole Y            :         42.0835443          -42.6899884           -0.6064442
 Dipole Z            :         -0.0000000            0.0000000           -0.0000000
 Magnitude           :                                                    0.6064442
  Basis Set: (THIS_BASIS AUX)
    Blend: AUG-CC-PVQZ-RI
	 Reference Energy          =     -56.2239871127096791 [Eh]
	 Singles Energy            =      -0.0000000000000000 [Eh]
	 Same-Spin Energy          =      -0.0594268632022253 [Eh]
	 Opposite-Spin Energy      =      -0.2250300847506123 [Eh]
	 Correlation Energy        =      -0.2844569479528375 [Eh]
	 Total Energy              =     -56.5084440606625193 [Eh]

	 ================> DF-SCS-MP2 Energies <==================
	-----------------------------------------------------------
	 SCS Same-Spin Scale       =       0.3333333333333333 [-]
	 SCS Opposite-Spin Scale   =       1.2000000000000000 [-]
	 SCS Same-Spin Energy      =      -0.0198089544007418 [Eh]
	 SCS Opposite-Spin Energy  =      -0.2700361017007347 [Eh]
	 SCS Correlation Energy    =      -0.2898450561014765 [Eh]
	 SCS Total Energy          =     -56.5138321688111560 [Eh]
	-----------------------------------------------------------

    SAPT Results
  --------------------------------------------------------------------------------------------------------
    Electrostatics                -23.91468348 [mEh]     -15.00669045 [kcal/mol]     -62.78799283 [kJ/mol]
      Elst10,r                    -24.35755202 [mEh]     -15.28459465 [kcal/mol]     -63.95074401 [kJ/mol]
      Elst12,r                      0.44286854 [mEh]       0.27790420 [kcal/mol]       1.16275118 [kJ/mol]

    Exchange                       27.73714727 [mEh]      17.40532269 [kcal/mol]      72.82387012 [kJ/mol]
      Exch10                       26.53812263 [mEh]      16.65292337 [kcal/mol]      69.67583136 [kJ/mol]
      Exch10(S^2)                  25.98730258 [mEh]      16.30727857 [kcal/mol]      68.22965353 [kJ/mol]
      Exch11(S^2)                   1.26879558 [mEh]       0.79618125 [kcal/mol]       3.33122234 [kJ/mol]
      Exch12(S^2)                  -0.06977094 [mEh]      -0.04378193 [kcal/mol]      -0.18318358 [kJ/mol]

    Induction                     -12.76511077 [mEh]      -8.01022794 [kcal/mol]     -33.51479372 [kJ/mol]
      Ind20,r                     -13.57622847 [mEh]      -8.51921198 [kcal/mol]     -35.64438293 [kJ/mol]
      Ind22                        -0.66924774 [mEh]      -0.41995930 [kcal/mol]      -1.75710970 [kJ/mol]
      Exch-Ind20,r                  7.72536567 [mEh]       4.84774014 [kcal/mol]      20.28294476 [kJ/mol]
      Exch-Ind22                    0.38082620 [mEh]       0.23897205 [kcal/mol]       0.99985905 [kJ/mol]
      delta HF,r (2)               -6.71009284 [mEh]      -4.21064683 [kcal/mol]     -17.61734632 [kJ/mol]
      delta MP2,r (2)               0.08426641 [mEh]       0.05287797 [kcal/mol]       0.22124142 [kJ/mol]

    Dispersion                     -7.28088281 [mEh]      -4.56882294 [kcal/mol]     -19.11595519 [kJ/mol]
      Disp20                       -8.75845206 [mEh]      -5.49601164 [kcal/mol]     -22.99531271 [kJ/mol]
      Disp21                        0.54196860 [mEh]       0.34009043 [kcal/mol]       1.42293836 [kJ/mol]
      Disp22 (SDQ)                  0.46341356 [mEh]       0.29079640 [kcal/mol]       1.21669213 [kJ/mol]
      Disp22 (T)                   -1.17440496 [mEh]      -0.73695024 [kcal/mol]      -3.08339979 [kJ/mol]
      Est. Disp22 (T)              -1.36839242 [mEh]      -0.85867921 [kcal/mol]      -3.59271380 [kJ/mol]
      Exch-Disp20                   1.84057951 [mEh]       1.15498108 [kcal/mol]       4.83244083 [kJ/mol]

  Total HF                        -10.38038503 [mEh]      -6.51378995 [kcal/mol]     -27.25369714 [kJ/mol]
  Total SAPT0                     -17.29825758 [mEh]     -10.85482051 [kcal/mol]     -45.41656902 [kJ/mol]
  Total SAPT2                     -15.94478594 [mEh]     -10.00550424 [kcal/mol]     -41.86302973 [kJ/mol]
  Total SAPT2+                    -16.30779621 [mEh]     -10.23329662 [kcal/mol]     -42.81611304 [kJ/mol]
  Total SAPT2+dMP2                -16.22352980 [mEh]     -10.18041865 [kcal/mol]     -42.59487162 [kJ/mol]

  Special recipe for scaled SAPT0 (see Manual):
    Electrostatics sSAPT0         -24.35755202 [mEh]     -15.28459465 [kcal/mol]     -63.95074401 [kJ/mol]
    Exchange sSAPT0                26.53812263 [mEh]      16.65292337 [kcal/mol]      69.67583136 [kJ/mol]
    Induction sSAPT0              -12.05923553 [mEh]      -7.56728454 [kcal/mol]     -31.66151852 [kJ/mol]
    Dispersion sSAPT0              -6.79833701 [mEh]      -4.26602088 [kcal/mol]     -17.84903137 [kJ/mol]
  Total sSAPT0                    -16.67700193 [mEh]     -10.46497671 [kcal/mol]     -43.78546254 [kJ/mol]
  --------------------------------------------------------------------------------------------------------

*** Psi4 exiting successfully. Buy a developer a beer!
