                               Psi4 1.9.1 release

  ==> Input File <==

--------------------------------------------------------------------------
#charge=0 charge_a=0 charge_b=0 selection_a=1-2 selection_b=3-6 scaling=0.9 benchmark_Eint=-8.705 benchmark_unit=kcal/mol group=XH-N
set_num_threads(4)
memory 8 GB
basis this_basis {
    assign    aug-cc-pVQZ
}

molecule {
     0 1
    --
     0 1
     H        0.00000       -0.31269        0.00000
    Cl       -0.00000        1.03066        0.00000
    --
     0 1
     N        0.00000       -1.86230        0.00000
     H       -0.47318       -2.22131        0.81958
     H       -0.47318       -2.22131       -0.81958
     H        0.94637       -2.22131        0.00000
}

set {
    scf_type                DF
    freeze_core             false
    do_ind_exch_sinf        true
    do_disp_exch_sinf       true
}

nrg = energy('sapt2+dmp2')
--------------------------------------------------------------------------

  //              Dimer HF             //
    Molecular point group: c1
  Charge       = 0
  Multiplicity = 1
  Basis Set: THIS_BASIS
    Blend: AUG-CC-PVQZ
  Basis Set: (THIS_BASIS AUX)
    Blend: AUG-CC-PVQZ-JKFIT
  @DF-RHF Final Energy:  -516.33843064496057
    Total Energy =                       -516.3384306449604537
 Dipole X            :         -0.0000056            0.0000088            0.0000032
 Dipole Y            :          5.6028156           -7.6350855           -2.0322699
 Dipole Z            :          0.0000000            0.0000000            0.0000000
 Magnitude           :                                                    2.0322699
  Basis Set: (THIS_BASIS AUX)
    Blend: AUG-CC-PVQZ-RI
	 Reference Energy          =    -516.3384306449605674 [Eh]
	 Singles Energy            =      -0.0000000000000000 [Eh]
	 Same-Spin Energy          =      -0.1347010590356335 [Eh]
	 Opposite-Spin Energy      =      -0.4495325686865018 [Eh]
	 Correlation Energy        =      -0.5842336277221354 [Eh]
	 Total Energy              =    -516.9226642726827095 [Eh]
	 SCS Total Energy          =    -516.9227700803962762 [Eh]
  //            Monomer A HF           //
    Molecular point group: c1
  Multiplicity = 1
  Basis Set: THIS_BASIS
    Blend: AUG-CC-PVQZ
  Basis Set: (THIS_BASIS AUX)
    Blend: AUG-CC-PVQZ-JKFIT
  @DF-RHF Final Energy:  -460.10802835222700
    Total Energy =                       -460.1080283522270520
  Basis Set: (THIS_BASIS AUX)
	 Singles Energy            =      -0.0000000000000000 [Eh]
	 Same-Spin Energy          =      -0.0695163423915287 [Eh]
	 Opposite-Spin Energy      =      -0.2206677688548395 [Eh]
	 Correlation Energy        =      -0.2901841112463682 [Eh]
	 Total Energy              =    -460.3982124634733850 [Eh]
	 SCS Total Energy          =    -460.3960017889833125 [Eh]
  //            Monomer B HF           //
    Molecular point group: c1

    Geometry (in Angstrom), charge = 0, multiplicity = 1:

       Center              X                  Y                   Z               Mass
    ------------   -----------------  -----------------  -----------------  -----------------
      Gh(H)          -0.000000190144    -0.368004758866     0.000000000000     1.007825032230
      Gh(CL)         -0.000000190144     0.975345241134     0.000000000000    34.968852682000
         N           -0.000000190144    -1.917614758866     0.000000000000    14.003074004430
         H           -0.473180190144    -2.276624758866     0.819580000000     1.007825032230
         H           -0.473180190144    -2.276624758866    -0.819580000000     1.007825032230
         H            0.946369809856    -2.276624758866     0.000000000000     1.007825032230

  Charge       = 0
  Multiplicity = 1
  Basis Set: THIS_BASIS
    Blend: AUG-CC-PVQZ
  Basis Set: (THIS_BASIS AUX)
    Blend: AUG-CC-PVQZ-JKFIT

    Orbital Energies [Eh]
    ---------------------

    Doubly Occupied:

       1A    -15.539199     2A     -1.139717     3A     -0.630907
       4A     -0.630904     5A     -0.425447

  @DF-RHF Final Energy:   -56.22399346312530

   => Energetics <=

    Nuclear Repulsion Energy =             11.9475428385057647
    One-Electron Energy =                 -99.6107215044773540
    Two-Electron Energy =                  31.4391852028462928
    Total Energy =                        -56.2239934631252964
 Dipole X            :         -0.0000127            0.0000153            0.0000026
 Dipole Y            :         37.6665450          -38.2729588           -0.6064138
 Dipole Z            :          0.0000000            0.0000000            0.0000000
 Magnitude           :                                                    0.6064138
  Basis Set: (THIS_BASIS AUX)
    Blend: AUG-CC-PVQZ-RI
	 Reference Energy          =     -56.2239934631252964 [Eh]
	 Singles Energy            =      -0.0000000000000000 [Eh]
	 Same-Spin Energy          =      -0.0594618879373911 [Eh]
	 Opposite-Spin Energy      =      -0.2253147181076666 [Eh]
	 Correlation Energy        =      -0.2847766060450577 [Eh]
	 Total Energy              =     -56.5087700691703532 [Eh]

	 ================> DF-SCS-MP2 Energies <==================
	-----------------------------------------------------------
	 SCS Same-Spin Scale       =       0.3333333333333333 [-]
	 SCS Opposite-Spin Scale   =       1.2000000000000000 [-]
	 SCS Same-Spin Energy      =      -0.0198206293124637 [Eh]
	 SCS Opposite-Spin Energy  =      -0.2703776617291999 [Eh]
	 SCS Correlation Energy    =      -0.2901982910416636 [Eh]
	 SCS Total Energy          =     -56.5141917541669585 [Eh]
	-----------------------------------------------------------

    SAPT Results
  --------------------------------------------------------------------------------------------------------
    Electrostatics                -47.20103512 [mEh]     -29.61909671 [kcal/mol]    -123.92630064 [kJ/mol]
      Elst10,r                    -48.32156226 [mEh]     -30.32223811 [kcal/mol]    -126.86824423 [kJ/mol]
      Elst12,r                      1.12052714 [mEh]       0.70314139 [kcal/mol]       2.94194359 [kJ/mol]

    Exchange                       78.39674037 [mEh]      49.19469730 [kcal/mol]     205.83061349 [kJ/mol]
      Exch10                       76.49582319 [mEh]      48.00185375 [kcal/mol]     200.83975611 [kJ/mol]
      Exch10(S^2)                  72.55519606 [mEh]      45.52907290 [kcal/mol]     190.49364101 [kJ/mol]
      Exch11(S^2)                   3.27275822 [mEh]       2.05368679 [kcal/mol]       8.59262552 [kJ/mol]
      Exch12(S^2)                  -1.37184103 [mEh]      -0.86084324 [kcal/mol]      -3.60176814 [kJ/mol]

    Induction                     -32.74915703 [mEh]     -20.55040630 [kcal/mol]     -85.98289995 [kJ/mol]
      Ind20,r                     -41.64223100 [mEh]     -26.13089446 [kcal/mol]    -109.33166242 [kJ/mol]
      Ind22                        -1.60838791 [mEh]      -1.00927865 [kcal/mol]      -4.22282189 [kJ/mol]
      Exch-Ind20,r                 24.93141721 [mEh]      15.64470050 [kcal/mol]      65.45742687 [kJ/mol]
      Exch-Ind22                    0.96295009 [mEh]       0.60426030 [kcal/mol]       2.52822511 [kJ/mol]
      delta HF,r (2)              -17.87227675 [mEh]     -11.21502298 [kcal/mol]     -46.92365614 [kJ/mol]
      delta MP2,r (2)               2.47937132 [mEh]       1.55582899 [kcal/mol]       6.50958851 [kJ/mol]

    Dispersion                    -14.32361667 [mEh]      -8.98820516 [kcal/mol]     -37.60665038 [kJ/mol]
      Disp20                      -18.23803316 [mEh]     -11.44453859 [kcal/mol]     -47.88394946 [kJ/mol]
      Disp21                        1.56041201 [mEh]       0.97917332 [kcal/mol]       4.09686116 [kJ/mol]
      Disp22 (SDQ)                  0.87657695 [mEh]       0.55006034 [kcal/mol]       2.30145246 [kJ/mol]
      Disp22 (T)                   -2.29834147 [mEh]      -1.44223105 [kcal/mol]      -6.03429470 [kJ/mol]
      Est. Disp22 (T)              -2.63231737 [mEh]      -1.65180409 [kcal/mol]      -6.91114830 [kJ/mol]
      Exch-Disp20                   4.10974491 [mEh]       2.57890386 [kcal/mol]      10.79013376 [kJ/mol]

  Total HF                         -6.40882961 [mEh]      -4.02160130 [kcal/mol]     -16.82637982 [kJ/mol]
  Total SAPT0                     -20.53711786 [mEh]     -12.88723602 [kcal/mol]     -53.92019552 [kJ/mol]
  Total SAPT2                     -18.16111136 [mEh]     -11.39626943 [kcal/mol]     -47.68199131 [kJ/mol]
  Total SAPT2+                    -18.35643978 [mEh]     -11.51883986 [kcal/mol]     -48.19482599 [kJ/mol]
  Total SAPT2+dMP2                -15.87706845 [mEh]      -9.96301087 [kcal/mol]     -41.68523748 [kJ/mol]

  Special recipe for scaled SAPT0 (see Manual):
    Electrostatics sSAPT0         -48.32156226 [mEh]     -30.32223811 [kcal/mol]    -126.86824423 [kJ/mol]
    Exchange sSAPT0                76.49582319 [mEh]      48.00185375 [kcal/mol]     200.83975611 [kJ/mol]
    Induction sSAPT0              -30.29623264 [mEh]     -19.01117300 [kcal/mol]     -79.54274783 [kJ/mol]
    Dispersion sSAPT0             -13.42163398 [mEh]      -8.42220248 [kcal/mol]     -35.23849517 [kJ/mol]
  Total sSAPT0                    -15.54360569 [mEh]      -9.75375983 [kcal/mol]     -40.80973112 [kJ/mol]
  --------------------------------------------------------------------------------------------------------

*** Psi4 exiting successfully. Buy a developer a beer!
