                               Psi4 1.9.1 release

  ==> Input File <==

--------------------------------------------------------------------------
#charge=0 charge_a=0 charge_b=0 selection_a=1-2 selection_b=3-6 scaling=1.0 benchmark_Eint=-8.137 benchmark_unit=kcal/mol group=XH-N
set_num_threads(4)
memory 8 GB
basis this_basis {
    assign    def2-qzvp
}

molecule {
     0 1
    --
     0 1
     H       -0.13083        0.13151       -0.43120
     I        0.01507       -0.01526       -2.14801
    --
     0 1
     N       -0.26658        0.26814        1.16811
     H        0.02347       -0.59244        1.61479
     H        0.31741        1.02440        1.50171
     H       -1.22807        0.46047        1.41877
}

set {
    scf_type                DF
    freeze_core             false
    do_ind_exch_sinf        true
    do_disp_exch_sinf       true
}

nrg = energy('sapt2+dmp2')
--------------------------------------------------------------------------

  //              Dimer HF             //
    Molecular point group: c1
  Charge       = 0
  Multiplicity = 1
  Basis Set: THIS_BASIS
    Blend: DEF2-QZVP
  Basis Set: (THIS_BASIS AUX)
    Blend: DEF2-UNIVERSAL-JKFIT
  @DF-RHF Final Energy:  -353.46668157369129
    Total Energy =                       -353.4666815736912895
 Dipole X            :          3.2200013           -3.4021132           -0.1821119
 Dipole Y            :         -3.2399776            3.4232236            0.1832460
 Dipole Z            :        -37.9120141           40.0565916            2.1445775
 Magnitude           :                                                    2.1600825
  Basis Set: (THIS_BASIS AUX)
    Blend: DEF2-QZVP-RI + DEF2-QZVPP-RI
	 Reference Energy          =    -353.4666815736912895 [Eh]
	 Singles Energy            =      -0.0000000000000000 [Eh]
	 Same-Spin Energy          =      -0.3532224029575574 [Eh]
	 Opposite-Spin Energy      =      -0.7836395386188286 [Eh]
	 Correlation Energy        =      -1.1368619415763859 [Eh]
	 Total Energy              =    -354.6035435152676882 [Eh]
	 SCS Total Energy          =    -354.5247898210197377 [Eh]
  //            Monomer A HF           //
    Molecular point group: c1
  Multiplicity = 1
  Basis Set: THIS_BASIS
    Blend: DEF2-QZVP
  Basis Set: (THIS_BASIS AUX)
    Blend: DEF2-UNIVERSAL-JKFIT
  @DF-RHF Final Energy:  -297.23814538112242
    Total Energy =                       -297.2381453811224219
  Basis Set: (THIS_BASIS AUX)
	 Singles Energy            =      -0.0000000000000000 [Eh]
	 Same-Spin Energy          =      -0.2874486540084421 [Eh]
	 Opposite-Spin Energy      =      -0.5593868209542932 [Eh]
	 Correlation Energy        =      -0.8468354749627353 [Eh]
	 Total Energy              =    -298.0849808560851670 [Eh]
	 SCS Total Energy          =    -298.0052257842704080 [Eh]
  //            Monomer B HF           //
    Molecular point group: c1

    Geometry (in Angstrom), charge = 0, multiplicity = 1:

       Center              X                  Y                   Z               Mass
    ------------   -----------------  -----------------  -----------------  -----------------
      Gh(H)          -0.111190854293     0.111845331322     1.308145705654     1.007825032230
      Gh(I)           0.034709145707    -0.034924668678    -0.408664294346   126.904471900000
         N           -0.246940854293     0.248475331322     2.907455705654    14.003074004430
         H            0.043109145707    -0.612104668678     3.354135705654     1.007825032230
         H            0.337049145707     1.004735331322     3.241055705654     1.007825032230
         H           -1.208430854293     0.440805331322     3.158115705654     1.007825032230

  Charge       = 0
  Multiplicity = 1
  Basis Set: THIS_BASIS
    Blend: DEF2-QZVP
  Basis Set: (THIS_BASIS AUX)
    Blend: DEF2-UNIVERSAL-JKFIT

    Orbital Energies [Eh]
    ---------------------

    Doubly Occupied:

       1A    -15.538046     2A     -1.137949     3A     -0.631741
       4A     -0.631737     5A     -0.422824

  @DF-RHF Final Energy:   -56.22437958591017

   => Energetics <=

    Nuclear Repulsion Energy =             11.9440531368464367
    One-Electron Energy =                 -99.6122686487781550
    Two-Electron Energy =                  31.4438359260215456
    Total Energy =                        -56.2243795859101709
 Dipole X            :          4.7816366           -4.8317624           -0.0501258
 Dipole Y            :         -4.8113700            4.8618180            0.0504481
 Dipole Z            :        -56.3001511           56.8911443            0.5909932
 Magnitude           :                                                    0.5952567
  Basis Set: (THIS_BASIS AUX)
    Blend: DEF2-QZVP-RI + DEF2-QZVPP-RI
	 Reference Energy          =     -56.2243795859101709 [Eh]
	 Singles Energy            =      -0.0000000000000000 [Eh]
	 Same-Spin Energy          =      -0.0582359217568778 [Eh]
	 Opposite-Spin Energy      =      -0.2197421195959706 [Eh]
	 Correlation Energy        =      -0.2779780413528484 [Eh]
	 Total Energy              =     -56.5023576272630166 [Eh]

	 ================> DF-SCS-MP2 Energies <==================
	-----------------------------------------------------------
	 SCS Same-Spin Scale       =       0.3333333333333333 [-]
	 SCS Opposite-Spin Scale   =       1.2000000000000000 [-]
	 SCS Same-Spin Energy      =      -0.0194119739189593 [Eh]
	 SCS Opposite-Spin Energy  =      -0.2636905435151647 [Eh]
	 SCS Correlation Energy    =      -0.2831025174341240 [Eh]
	 SCS Total Energy          =     -56.5074821033442944 [Eh]
	-----------------------------------------------------------

    SAPT Results
  --------------------------------------------------------------------------------------------------------
    Electrostatics                -42.85478941 [mEh]     -26.89178635 [kcal/mol]    -112.51523410 [kJ/mol]
      Elst10,r                    -43.81394414 [mEh]     -27.49366503 [kcal/mol]    -115.03349449 [kJ/mol]
      Elst12,r                      0.95915473 [mEh]       0.60187868 [kcal/mol]       2.51826039 [kJ/mol]

    Exchange                       78.02263253 [mEh]      48.95994108 [kcal/mol]     204.84839348 [kJ/mol]
      Exch10                       77.28565836 [mEh]      48.49748281 [kcal/mol]     202.91346808 [kJ/mol]
      Exch10(S^2)                  72.67825551 [mEh]      45.60629387 [kcal/mol]     190.81673355 [kJ/mol]
      Exch11(S^2)                   4.01363266 [mEh]       2.51859252 [kcal/mol]      10.53779111 [kJ/mol]
      Exch12(S^2)                  -3.27665850 [mEh]      -2.05613425 [kcal/mol]      -8.60286570 [kJ/mol]

    Induction                     -35.90023746 [mEh]     -22.52773912 [kcal/mol]     -94.25606047 [kJ/mol]
      Ind20,r                     -34.71715050 [mEh]     -21.78534084 [kcal/mol]     -91.14986608 [kJ/mol]
      Ind22                         0.36130154 [mEh]       0.22672014 [kcal/mol]       0.94859707 [kJ/mol]
      Exch-Ind20,r                 19.29695929 [mEh]      12.10902477 [kcal/mol]      50.66415963 [kJ/mol]
      Exch-Ind22                   -0.20082354 [mEh]      -0.12601868 [kcal/mol]      -0.52726214 [kJ/mol]
      delta HF,r (2)              -22.20812967 [mEh]     -13.93581176 [kcal/mol]     -58.30743641 [kJ/mol]
      delta MP2,r (2)               1.56760542 [mEh]       0.98368725 [kcal/mol]       4.11574747 [kJ/mol]

    Dispersion                    -14.98024453 [mEh]      -9.40024536 [kcal/mol]     -39.33062660 [kJ/mol]
      Disp20                      -19.72746899 [mEh]     -12.37917369 [kcal/mol]     -51.79446270 [kJ/mol]
      Disp21                        2.30499177 [mEh]       1.44640417 [kcal/mol]       6.05175506 [kJ/mol]
      Disp22 (SDQ)                  1.08020681 [mEh]       0.67784001 [kcal/mol]       2.83608259 [kJ/mol]
      Disp22 (T)                   -2.57254375 [mEh]      -1.61429558 [kcal/mol]      -6.75421270 [kJ/mol]
      Est. Disp22 (T)              -2.89280554 [mEh]      -1.81526288 [kcal/mol]      -7.59505989 [kJ/mol]
      Exch-Disp20                   4.25483142 [mEh]       2.66994702 [kcal/mol]      11.17105834 [kJ/mol]

  Total HF                         -4.15660666 [mEh]      -2.60831006 [kcal/mol]     -10.91316928 [kJ/mol]
  Total SAPT0                     -19.62924423 [mEh]     -12.31753672 [kcal/mol]     -51.53657363 [kJ/mol]
  Total SAPT2                     -17.77263734 [mEh]     -11.15249831 [kcal/mol]     -46.66205291 [kJ/mol]
  Total SAPT2+                    -17.28024430 [mEh]     -10.84351701 [kcal/mol]     -45.36927516 [kJ/mol]
  Total SAPT2+dMP2                -15.71263888 [mEh]      -9.85982975 [kcal/mol]     -41.25352769 [kJ/mol]

  Special recipe for scaled SAPT0 (see Manual):
    Electrostatics sSAPT0         -43.81394414 [mEh]     -27.49366503 [kcal/mol]    -115.03349449 [kJ/mol]
    Exchange sSAPT0                77.28565836 [mEh]      48.49748281 [kcal/mol]     202.91346808 [kJ/mol]
    Induction sSAPT0              -33.72078471 [mEh]     -21.16011187 [kcal/mol]     -88.53390807 [kJ/mol]
    Dispersion sSAPT0             -14.61105584 [mEh]      -9.16857596 [kcal/mol]     -38.36132182 [kJ/mol]
  Total sSAPT0                    -14.86012633 [mEh]      -9.32487005 [kcal/mol]     -39.01525631 [kJ/mol]
  --------------------------------------------------------------------------------------------------------

*** Psi4 exiting successfully. Buy a developer a beer!
