                               Psi4 1.9.1 release

  ==> Input File <==

--------------------------------------------------------------------------
#charge=0 charge_a=0 charge_b=0 selection_a=1-2 selection_b=3-6 scaling=1.25 benchmark_Eint=-6.792 benchmark_unit=kcal/mol group=XH-N
set_num_threads(4)
memory 8 GB
basis this_basis {
    assign    def2-qzvp
}

molecule {
     0 1
    --
     0 1
     H       -0.13083        0.13151       -0.43120
     I        0.01507       -0.01526       -2.14801
    --
     0 1
     N       -0.30052        0.30230        1.56794
     H       -0.01047       -0.55828        2.01462
     H        0.28347        1.05856        1.90153
     H       -1.26200        0.49463        1.81860
}

set {
    scf_type                DF
    freeze_core             false
    do_ind_exch_sinf        true
    do_disp_exch_sinf       true
}

nrg = energy('sapt2+dmp2')
--------------------------------------------------------------------------

  //              Dimer HF             //
    Molecular point group: c1
  Charge       = 0
  Multiplicity = 1
  Basis Set: THIS_BASIS
    Blend: DEF2-QZVP
  Basis Set: (THIS_BASIS AUX)
    Blend: DEF2-UNIVERSAL-JKFIT
  @DF-RHF Final Energy:  -353.46814942673717
    Total Energy =                       -353.4681494267371704
 Dipole X            :          3.6424315           -3.7722312           -0.1297998
 Dipole Y            :         -3.6651387            3.7957551            0.1306163
 Dipole Z            :        -42.8880783           44.4169183            1.5288400
 Magnitude           :                                                    1.5398898
  Basis Set: (THIS_BASIS AUX)
    Blend: DEF2-QZVP-RI + DEF2-QZVPP-RI
	 Reference Energy          =    -353.4681494267371704 [Eh]
	 Singles Energy            =      -0.0000000000000000 [Eh]
	 Same-Spin Energy          =      -0.3496064034204521 [Eh]
	 Opposite-Spin Energy      =      -0.7810595303718300 [Eh]
	 Correlation Energy        =      -1.1306659337922822 [Eh]
	 Total Energy              =    -354.5988153605294428 [Eh]
	 SCS Total Energy          =    -354.5219563309901787 [Eh]
  //            Monomer A HF           //
    Molecular point group: c1
  Multiplicity = 1
  Basis Set: THIS_BASIS
    Blend: DEF2-QZVP
  Basis Set: (THIS_BASIS AUX)
    Blend: DEF2-UNIVERSAL-JKFIT
  @DF-RHF Final Energy:  -297.23813922513403
    Total Energy =                       -297.2381392251340912
  Basis Set: (THIS_BASIS AUX)
	 Singles Energy            =      -0.0000000000000000 [Eh]
	 Same-Spin Energy          =      -0.2873322747418265 [Eh]
	 Opposite-Spin Energy      =      -0.5590022412264726 [Eh]
	 Correlation Energy        =      -0.8463345159682991 [Eh]
	 Total Energy              =    -298.0844737411023289 [Eh]
	 SCS Total Energy          =    -298.0047193395197382 [Eh]
  //            Monomer B HF           //
    Molecular point group: c1

    Geometry (in Angstrom), charge = 0, multiplicity = 1:

       Center              X                  Y                   Z               Mass
    ------------   -----------------  -----------------  -----------------  -----------------
      Gh(H)          -0.107203855541     0.107832418751     1.261176137211     1.007825032230
      Gh(I)           0.038696144459    -0.038937581249    -0.455633862789   126.904471900000
         N           -0.276893855541     0.278622418751     3.260316137211    14.003074004430
         H            0.013156144459    -0.581957581249     3.706996137211     1.007825032230
         H            0.307096144459     1.034882418751     3.593906137211     1.007825032230
         H           -1.238373855541     0.470952418751     3.510976137211     1.007825032230

  Charge       = 0
  Multiplicity = 1
  Basis Set: THIS_BASIS
    Blend: DEF2-QZVP
  Basis Set: (THIS_BASIS AUX)
    Blend: DEF2-UNIVERSAL-JKFIT

    Orbital Energies [Eh]
    ---------------------

    Doubly Occupied:

       1A    -15.538045     2A     -1.137936     3A     -0.631730
       4A     -0.631727     5A     -0.422810

  @DF-RHF Final Energy:   -56.22438117615577

   => Energetics <=

    Nuclear Repulsion Energy =             11.9441026905738124
    One-Electron Energy =                 -99.6124703005617533
    Two-Electron Energy =                  31.4439864338321726
    Total Energy =                        -56.2243811761557666
 Dipole X            :          5.3475081           -5.3977732           -0.0502651
 Dipole Y            :         -5.3809220            5.4315154            0.0505935
 Dipole Z            :        -62.9665543           63.5592212            0.5926668
 Magnitude           :                                                    0.5969424
  Basis Set: (THIS_BASIS AUX)
    Blend: DEF2-QZVP-RI + DEF2-QZVPP-RI
	 Reference Energy          =     -56.2243811761557666 [Eh]
	 Singles Energy            =      -0.0000000000000000 [Eh]
	 Same-Spin Energy          =      -0.0581924493046091 [Eh]
	 Opposite-Spin Energy      =      -0.2194566864380409 [Eh]
	 Correlation Energy        =      -0.2776491357426500 [Eh]
	 Total Energy              =     -56.5020303118984160 [Eh]

	 ================> DF-SCS-MP2 Energies <==================
	-----------------------------------------------------------
	 SCS Same-Spin Scale       =       0.3333333333333333 [-]
	 SCS Opposite-Spin Scale   =       1.2000000000000000 [-]
	 SCS Same-Spin Energy      =      -0.0193974831015364 [Eh]
	 SCS Opposite-Spin Energy  =      -0.2633480237256491 [Eh]
	 SCS Correlation Energy    =      -0.2827455068271855 [Eh]
	 SCS Total Energy          =     -56.5071266829829497 [Eh]
	-----------------------------------------------------------

    SAPT Results
  --------------------------------------------------------------------------------------------------------
    Electrostatics                -17.96987994 [mEh]     -11.27626990 [kcal/mol]     -47.17991328 [kJ/mol]
      Elst10,r                    -17.96174385 [mEh]     -11.27116443 [kcal/mol]     -47.15855198 [kJ/mol]
      Elst12,r                     -0.00813609 [mEh]      -0.00510547 [kcal/mol]      -0.02136130 [kJ/mol]

    Exchange                       24.34639124 [mEh]      15.27759116 [kcal/mol]      63.92144139 [kJ/mol]
      Exch10                       23.71289670 [mEh]      14.88006733 [kcal/mol]      62.25820171 [kJ/mol]
      Exch10(S^2)                  23.20248373 [mEh]      14.55977836 [kcal/mol]      60.91811264 [kJ/mol]
      Exch11(S^2)                   1.35636559 [mEh]       0.85113225 [kcal/mol]       3.56113735 [kJ/mol]
      Exch12(S^2)                  -0.72287105 [mEh]      -0.45360843 [kcal/mol]      -1.89789767 [kJ/mol]

    Induction                     -11.81726696 [mEh]      -7.41544697 [kcal/mol]     -31.02623012 [kJ/mol]
      Ind20,r                      -9.26978146 [mEh]      -5.81687569 [kcal/mol]     -24.33780788 [kJ/mol]
      Ind22                         0.00597674 [mEh]       0.00375046 [kcal/mol]       0.01569194 [kJ/mol]
      Exch-Ind20,r                  4.67270356 [mEh]       2.93216575 [kcal/mol]      12.26818151 [kJ/mol]
      Exch-Ind22                   -0.00301275 [mEh]      -0.00189053 [kcal/mol]      -0.00790998 [kJ/mol]
      delta HF,r (2)               -6.78310040 [mEh]      -4.25645976 [kcal/mol]     -17.80902764 [kJ/mol]
      delta MP2,r (2)              -0.44005265 [mEh]      -0.27613721 [kcal/mol]      -1.15535807 [kJ/mol]

    Dispersion                     -6.89245278 [mEh]      -4.32507942 [kcal/mol]     -18.09613227 [kJ/mol]
      Disp20                       -8.64460989 [mEh]      -5.42457460 [kcal/mol]     -22.69642013 [kJ/mol]
      Disp21                        0.84185609 [mEh]       0.52827267 [kcal/mol]       2.21029285 [kJ/mol]
      Disp22 (SDQ)                  0.52670991 [mEh]       0.33051546 [kcal/mol]       1.38287667 [kJ/mol]
      Disp22 (T)                   -1.18646441 [mEh]      -0.74451766 [kcal/mol]      -3.11506187 [kJ/mol]
      Est. Disp22 (T)              -1.39046690 [mEh]      -0.87253115 [kcal/mol]      -3.65067034 [kJ/mol]
      Exch-Disp20                   1.77405801 [mEh]       1.11323821 [kcal/mol]       4.65778867 [kJ/mol]

  Total HF                         -5.62902545 [mEh]      -3.53226680 [kcal/mol]     -14.77900428 [kJ/mol]
  Total SAPT0                     -12.49957732 [mEh]      -7.84360319 [kcal/mol]     -32.81763574 [kJ/mol]
  Total SAPT2                     -11.87125488 [mEh]      -7.44932490 [kcal/mol]     -31.16797539 [kJ/mol]
  Total SAPT2+                    -11.89315578 [mEh]      -7.46306793 [kcal/mol]     -31.22547620 [kJ/mol]
  Total SAPT2+dMP2                -12.33320843 [mEh]      -7.73920513 [kcal/mol]     -32.38083428 [kJ/mol]

  Special recipe for scaled SAPT0 (see Manual):
    Electrostatics sSAPT0         -17.96174385 [mEh]     -11.27116443 [kcal/mol]     -47.15855198 [kJ/mol]
    Exchange sSAPT0                23.71289670 [mEh]      14.88006733 [kcal/mol]      62.25820171 [kJ/mol]
    Induction sSAPT0              -11.06497164 [mEh]      -6.94337453 [kcal/mol]     -29.05107904 [kJ/mol]
    Dispersion sSAPT0              -6.75087921 [mEh]      -4.23624066 [kcal/mol]     -17.72443092 [kJ/mol]
  Total sSAPT0                    -12.06469799 [mEh]      -7.57071229 [kcal/mol]     -31.67586022 [kJ/mol]
  --------------------------------------------------------------------------------------------------------

*** Psi4 exiting successfully. Buy a developer a beer!
