                               Psi4 1.9.1 release

  ==> Input File <==

--------------------------------------------------------------------------
#charge=0 charge_a=0 charge_b=0 selection_a=1-2 selection_b=3-6 scaling=0.85 benchmark_Eint=-6.872 benchmark_unit=kcal/mol group=XH-N
set_num_threads(4)
memory 8 GB
basis this_basis {
    assign    def2-qzvp
}

molecule {
     0 1
    --
     0 1
     H       -0.13083        0.13151       -0.43120
     I        0.01507       -0.01526       -2.14801
    --
     0 1
     N       -0.24622        0.24765        0.92821
     H        0.04383       -0.61294        1.37489
     H        0.33778        1.00391        1.26181
     H       -1.20770        0.43998        1.17888
}

set {
    scf_type                DF
    freeze_core             false
    do_ind_exch_sinf        true
    do_disp_exch_sinf       true
}

nrg = energy('sapt2+dmp2')
--------------------------------------------------------------------------

  //              Dimer HF             //
    Molecular point group: c1
  Charge       = 0
  Multiplicity = 1
  Basis Set: THIS_BASIS
    Blend: DEF2-QZVP
  Basis Set: (THIS_BASIS AUX)
    Blend: DEF2-UNIVERSAL-JKFIT
  @DF-RHF Final Energy:  -353.46321124648227
    Total Energy =                       -353.4632112464822740
 Dipole X            :          2.9508907           -3.1800491           -0.2291584
 Dipole Y            :         -2.9691716            3.1997560            0.2305844
 Dipole Z            :        -34.7420259           37.4403794            2.6983535
 Magnitude           :                                                    2.7178657
  Basis Set: (THIS_BASIS AUX)
    Blend: DEF2-QZVP-RI + DEF2-QZVPP-RI
	 Reference Energy          =    -353.4632112464822740 [Eh]
	 Singles Energy            =      -0.0000000000000000 [Eh]
	 Same-Spin Energy          =      -0.3555381880951727 [Eh]
	 Opposite-Spin Energy      =      -0.7845604813626060 [Eh]
	 Correlation Energy        =      -1.1400986694577788 [Eh]
	 Total Energy              =    -354.6033099159400308 [Eh]
	 SCS Total Energy          =    -354.5231965534824781 [Eh]
  //            Monomer A HF           //
    Molecular point group: c1
  Multiplicity = 1
  Basis Set: THIS_BASIS
    Blend: DEF2-QZVP
  Basis Set: (THIS_BASIS AUX)
    Blend: DEF2-UNIVERSAL-JKFIT
  @DF-RHF Final Energy:  -297.23815025076192
    Total Energy =                       -297.2381502507619189
  Basis Set: (THIS_BASIS AUX)
	 Singles Energy            =      -0.0000000000000000 [Eh]
	 Same-Spin Energy          =      -0.2875297308025641 [Eh]
	 Opposite-Spin Energy      =      -0.5596729398129324 [Eh]
	 Correlation Energy        =      -0.8472026706154965 [Eh]
	 Total Energy              =    -298.0853529213774209 [Eh]
	 SCS Total Energy          =    -298.0056010221383076 [Eh]
  //            Monomer B HF           //
    Molecular point group: c1

    Geometry (in Angstrom), charge = 0, multiplicity = 1:

       Center              X                  Y                   Z               Mass
    ------------   -----------------  -----------------  -----------------  -----------------
      Gh(H)          -0.113582764438     0.114252443555     1.336327653854     1.007825032230
      Gh(I)           0.032317235562    -0.032517556445    -0.380482346146   126.904471900000
         N           -0.228972764438     0.230392443555     2.695737653854    14.003074004430
         H            0.061077235562    -0.630197556445     3.142417653854     1.007825032230
         H            0.355027235562     0.986652443555     3.029337653854     1.007825032230
         H           -1.190452764438     0.422722443555     2.946407653854     1.007825032230

  Charge       = 0
  Multiplicity = 1
  Basis Set: THIS_BASIS
    Blend: DEF2-QZVP
  Basis Set: (THIS_BASIS AUX)
    Blend: DEF2-UNIVERSAL-JKFIT

    Orbital Energies [Eh]
    ---------------------

    Doubly Occupied:

       1A    -15.537993     2A     -1.137920     3A     -0.631710
       4A     -0.631710     5A     -0.422805

  @DF-RHF Final Energy:   -56.22434874897540

   => Energetics <=

    Nuclear Repulsion Energy =             11.9440252192087630
    One-Electron Energy =                 -99.6124680715255124
    Two-Electron Energy =                  31.4440941033413424
    Total Energy =                        -56.2243487489754017
 Dipole X            :          4.4422636           -4.4921769           -0.0499133
 Dipole Y            :         -4.4698443            4.5200821            0.0502378
 Dipole Z            :        -52.3017047           52.8902719            0.5885671
 Magnitude           :                                                    0.5928123
  Basis Set: (THIS_BASIS AUX)
    Blend: DEF2-QZVP-RI + DEF2-QZVPP-RI
	 Reference Energy          =     -56.2243487489754017 [Eh]
	 Singles Energy            =      -0.0000000000000000 [Eh]
	 Same-Spin Energy          =      -0.0582735932984505 [Eh]
	 Opposite-Spin Energy      =      -0.2200210579776447 [Eh]
	 Correlation Energy        =      -0.2782946512760952 [Eh]
	 Total Energy              =     -56.5026434002515003 [Eh]

	 ================> DF-SCS-MP2 Energies <==================
	-----------------------------------------------------------
	 SCS Same-Spin Scale       =       0.3333333333333333 [-]
	 SCS Opposite-Spin Scale   =       1.2000000000000000 [-]
	 SCS Same-Spin Energy      =      -0.0194245310994835 [Eh]
	 SCS Opposite-Spin Energy  =      -0.2640252695731736 [Eh]
	 SCS Correlation Energy    =      -0.2834498006726571 [Eh]
	 SCS Total Energy          =     -56.5077985496480579 [Eh]
	-----------------------------------------------------------

    SAPT Results
  --------------------------------------------------------------------------------------------------------
    Electrostatics                -73.08636809 [mEh]     -45.86238838 [kcal/mol]    -191.88823298 [kJ/mol]
      Elst10,r                    -75.79481044 [mEh]     -47.56196161 [kcal/mol]    -198.99924738 [kJ/mol]
      Elst12,r                      2.70844235 [mEh]       1.69957323 [kcal/mol]       7.11101440 [kJ/mol]

    Exchange                      152.74895235 [mEh]      95.85141471 [kcal/mol]     401.04231915 [kJ/mol]
      Exch10                      152.70671758 [mEh]      95.82491199 [kcal/mol]     400.93143176 [kJ/mol]
      Exch10(S^2)                 136.62966583 [mEh]      85.73640970 [kcal/mol]     358.72113821 [kJ/mol]
      Exch11(S^2)                   7.03627700 [mEh]       4.41533048 [kcal/mol]      18.47374271 [kJ/mol]
      Exch12(S^2)                  -6.99404222 [mEh]      -4.38882775 [kcal/mol]     -18.36285532 [kJ/mol]

    Induction                     -68.77377066 [mEh]     -43.15619264 [kcal/mol]    -180.56551000 [kJ/mol]
      Ind20,r                     -80.26852937 [mEh]     -50.36926262 [kcal/mol]    -210.74499482 [kJ/mol]
      Ind22                         0.94903538 [mEh]       0.59552869 [kcal/mol]       2.49169206 [kJ/mol]
      Exch-Ind20,r                 42.54963055 [mEh]      26.70029628 [kcal/mol]     111.71403962 [kJ/mol]
      Exch-Ind22                   -0.50307518 [mEh]      -0.31568444 [kcal/mol]      -1.32082371 [kJ/mol]
      delta HF,r (2)              -39.90525507 [mEh]     -25.04092561 [kcal/mol]    -104.77123275 [kJ/mol]
      delta MP2,r (2)               8.40442302 [mEh]       5.27385506 [kcal/mol]      22.06580959 [kJ/mol]

    Dispersion                    -24.76126707 [mEh]     -15.53792967 [kcal/mol]     -65.01069773 [kJ/mol]
      Disp20                      -32.30536994 [mEh]     -20.27192569 [kcal/mol]     -84.81773709 [kJ/mol]
      Disp21                        4.41515484 [mEh]       2.77055149 [kcal/mol]      11.59198744 [kJ/mol]
      Disp22 (SDQ)                  1.51521521 [mEh]       0.95081190 [kcal/mol]       3.97819697 [kJ/mol]
      Disp22 (T)                   -4.04690180 [mEh]      -2.53946922 [kcal/mol]     -10.62513922 [kJ/mol]
      Est. Disp22 (T)              -4.48922921 [mEh]      -2.81703386 [kcal/mol]     -11.78646967 [kJ/mol]
      Exch-Disp20                   6.10296203 [mEh]       3.82966649 [kcal/mol]      16.02332460 [kJ/mol]

  Total HF                         -0.71224674 [mEh]      -0.44694158 [kcal/mol]      -1.87000357 [kJ/mol]
  Total SAPT0                     -26.91465465 [mEh]     -16.88920078 [kcal/mol]     -70.66441606 [kJ/mol]
  Total SAPT2                     -23.71801733 [mEh]     -14.88328057 [kcal/mol]     -62.27164592 [kJ/mol]
  Total SAPT2+                    -22.27687649 [mEh]     -13.97895104 [kcal/mol]     -58.48793116 [kJ/mol]
  Total SAPT2+dMP2                -13.87245347 [mEh]      -8.70509598 [kcal/mol]     -36.42212157 [kJ/mol]

  Special recipe for scaled SAPT0 (see Manual):
    Electrostatics sSAPT0         -75.79481044 [mEh]     -47.56196161 [kcal/mol]    -198.99924738 [kJ/mol]
    Exchange sSAPT0               152.70671758 [mEh]      95.82491199 [kcal/mol]     400.93143176 [kJ/mol]
    Induction sSAPT0              -60.76711546 [mEh]     -38.13194064 [kcal/mol]    -159.54403965 [kJ/mol]
    Dispersion sSAPT0             -23.78457574 [mEh]     -14.92504661 [kcal/mol]     -62.44639501 [kJ/mol]
  Total sSAPT0                     -7.63978406 [mEh]      -4.79403687 [kcal/mol]     -20.05825028 [kJ/mol]
  --------------------------------------------------------------------------------------------------------

*** Psi4 exiting successfully. Buy a developer a beer!
