                               Psi4 1.9.1 release

  ==> Input File <==

--------------------------------------------------------------------------
#charge=0 charge_a=0 charge_b=0 selection_a=1-2 selection_b=3-6 scaling=0.9 benchmark_Eint=-7.665 benchmark_unit=kcal/mol group=XH-N
set_num_threads(4)
memory 8 GB
basis this_basis {
    assign    def2-qzvp
}

molecule {
     0 1
    --
     0 1
     H       -0.13083        0.13151       -0.43120
     I        0.01507       -0.01526       -2.14801
    --
     0 1
     N       -0.25301        0.25448        1.00818
     H        0.03704       -0.60611        1.45486
     H        0.33099        1.01074        1.34177
     H       -1.21449        0.44681        1.25884
}

set {
    scf_type                DF
    freeze_core             false
    do_ind_exch_sinf        true
    do_disp_exch_sinf       true
}

nrg = energy('sapt2+dmp2')
--------------------------------------------------------------------------

  //              Dimer HF             //
    Molecular point group: c1
  Charge       = 0
  Multiplicity = 1
  Basis Set: THIS_BASIS
    Blend: DEF2-QZVP
  Basis Set: (THIS_BASIS AUX)
    Blend: DEF2-UNIVERSAL-JKFIT
  @DF-RHF Final Energy:  -353.46478089622792
    Total Energy =                       -353.4647808962279214
 Dipole X            :          3.0416809           -3.2540974           -0.2124165
 Dipole Y            :         -3.0605024            3.2742405            0.2137381
 Dipole Z            :        -35.8111672           38.3124629            2.5012956
 Magnitude           :                                                    2.5193818
  Basis Set: (THIS_BASIS AUX)
    Blend: DEF2-QZVP-RI + DEF2-QZVPP-RI
	 Reference Energy          =    -353.4647808962279214 [Eh]
	 Singles Energy            =      -0.0000000000000000 [Eh]
	 Same-Spin Energy          =      -0.3548274633077755 [Eh]
	 Opposite-Spin Energy      =      -0.7843871975643824 [Eh]
	 Correlation Energy        =      -1.1392146608721578 [Eh]
	 Total Energy              =    -354.6039955571000633 [Eh]
	 SCS Total Energy          =    -354.5243213544077889 [Eh]
  //            Monomer A HF           //
    Molecular point group: c1
  Multiplicity = 1
  Basis Set: THIS_BASIS
    Blend: DEF2-QZVP
  Basis Set: (THIS_BASIS AUX)
    Blend: DEF2-UNIVERSAL-JKFIT
  @DF-RHF Final Energy:  -297.23814836185988
    Total Energy =                       -297.2381483618598850
  Basis Set: (THIS_BASIS AUX)
	 Singles Energy            =      -0.0000000000000000 [Eh]
	 Same-Spin Energy          =      -0.2875019396142323 [Eh]
	 Opposite-Spin Energy      =      -0.5595747555554504 [Eh]
	 Correlation Energy        =      -0.8470766951696828 [Eh]
	 Total Energy              =    -298.0852250570295610 [Eh]
	 SCS Total Energy          =    -298.0054720483978485 [Eh]
  //            Monomer B HF           //
    Molecular point group: c1

    Geometry (in Angstrom), charge = 0, multiplicity = 1:

       Center              X                  Y                   Z               Mass
    ------------   -----------------  -----------------  -----------------  -----------------
      Gh(H)          -0.112785115832     0.113450095989     1.326933395432     1.007825032230
      Gh(I)           0.033114884168    -0.033319904011    -0.389876604568   126.904471900000
         N           -0.234965115832     0.236420095989     2.766313395432    14.003074004430
         H            0.055084884168    -0.624169904011     3.212993395432     1.007825032230
         H            0.349034884168     0.992680095989     3.099903395432     1.007825032230
         H           -1.196445115832     0.428750095989     3.016973395432     1.007825032230

  Charge       = 0
  Multiplicity = 1
  Basis Set: THIS_BASIS
    Blend: DEF2-QZVP
  Basis Set: (THIS_BASIS AUX)
    Blend: DEF2-UNIVERSAL-JKFIT

    Orbital Energies [Eh]
    ---------------------

    Doubly Occupied:

       1A    -15.538023     2A     -1.137938     3A     -0.631729
       4A     -0.631728     5A     -0.422815

  @DF-RHF Final Energy:   -56.22436391962537

   => Energetics <=

    Nuclear Repulsion Energy =             11.9440457310165655
    One-Electron Energy =                 -99.6123526902574525
    Two-Electron Energy =                  31.4439430396155117
    Total Energy =                        -56.2243639196253682
 Dipole X            :          4.5554217           -4.6054159           -0.0499942
 Dipole Y            :         -4.5836675            4.6339882            0.0503208
 Dipole Z            :        -53.6344164           54.2239223            0.5895059
 Magnitude           :                                                    0.5937582
  Basis Set: (THIS_BASIS AUX)
    Blend: DEF2-QZVP-RI + DEF2-QZVPP-RI
	 Reference Energy          =     -56.2243639196253682 [Eh]
	 Singles Energy            =      -0.0000000000000000 [Eh]
	 Same-Spin Energy          =      -0.0582551257790942 [Eh]
	 Opposite-Spin Energy      =      -0.2198997328682022 [Eh]
	 Correlation Energy        =      -0.2781548586472965 [Eh]
	 Total Energy              =     -56.5025187782726661 [Eh]

	 ================> DF-SCS-MP2 Energies <==================
	-----------------------------------------------------------
	 SCS Same-Spin Scale       =       0.3333333333333333 [-]
	 SCS Opposite-Spin Scale   =       1.2000000000000000 [-]
	 SCS Same-Spin Energy      =      -0.0194183752596981 [Eh]
	 SCS Opposite-Spin Energy  =      -0.2638796794418427 [Eh]
	 SCS Correlation Energy    =      -0.2832980547015408 [Eh]
	 SCS Total Energy          =     -56.5076619743269077 [Eh]
	-----------------------------------------------------------

    SAPT Results
  --------------------------------------------------------------------------------------------------------
    Electrostatics                -61.30532522 [mEh]     -38.46967237 [kcal/mol]    -160.95710918 [kJ/mol]
      Elst10,r                    -63.28037000 [mEh]     -39.70903168 [kcal/mol]    -166.14258855 [kJ/mol]
      Elst12,r                      1.97504478 [mEh]       1.23935931 [kcal/mol]       5.18547936 [kJ/mol]

    Exchange                      122.45323132 [mEh]      76.84056275 [kcal/mol]     321.50091454 [kJ/mol]
      Exch10                      122.06140368 [mEh]      76.59468719 [kcal/mol]     320.47217120 [kJ/mol]
      Exch10(S^2)                 111.38271559 [mEh]      69.89370925 [kcal/mol]     292.43527950 [kJ/mol]
      Exch11(S^2)                   5.89010674 [mEh]       3.69609778 [kcal/mol]      15.46447312 [kJ/mol]
      Exch12(S^2)                  -5.49827910 [mEh]      -3.45022222 [kcal/mol]     -14.43572978 [kJ/mol]

    Induction                     -55.50162089 [mEh]     -34.82779292 [kcal/mol]    -145.71948556 [kJ/mol]
      Ind20,r                     -60.52402013 [mEh]     -37.97939602 [kcal/mol]    -158.90579296 [kJ/mol]
      Ind22                         0.71466063 [mEh]       0.44845632 [kcal/mol]       1.87634122 [kJ/mol]
      Exch-Ind20,r                 32.92533037 [mEh]      20.66095673 [kcal/mol]      86.44544297 [kJ/mol]
      Exch-Ind22                   -0.38877849 [mEh]      -0.24396219 [kcal/mol]      -1.02073779 [kJ/mol]
      delta HF,r (2)              -33.45095865 [mEh]     -20.99079346 [kcal/mol]     -87.82547984 [kJ/mol]
      delta MP2,r (2)               5.22214539 [mEh]       3.27694571 [kcal/mol]      13.71074084 [kJ/mol]

    Dispersion                    -20.85870416 [mEh]     -13.08903447 [kcal/mol]     -54.76452022 [kJ/mol]
      Disp20                      -27.42590842 [mEh]     -17.21001736 [kcal/mol]     -72.00671263 [kJ/mol]
      Disp21                        3.54832443 [mEh]       2.22660720 [kcal/mol]       9.31612452 [kJ/mol]
      Disp22 (SDQ)                  1.36812414 [mEh]       0.85851086 [kcal/mol]       3.59200944 [kJ/mol]
      Disp22 (T)                   -3.46938520 [mEh]      -2.17707208 [kcal/mol]      -9.10886959 [kJ/mol]
      Est. Disp22 (T)              -3.87714572 [mEh]      -2.43294567 [kcal/mol]     -10.17944468 [kJ/mol]
      Exch-Disp20                   5.52790140 [mEh]       3.46881050 [kcal/mol]      14.51350314 [kJ/mol]

  Total HF                         -2.26861474 [mEh]      -1.42357724 [kcal/mol]      -5.95624719 [kJ/mol]
  Total SAPT0                     -24.16662176 [mEh]     -15.16478410 [kcal/mol]     -63.44945668 [kJ/mol]
  Total SAPT2                     -21.47386719 [mEh]     -13.47505510 [kcal/mol]     -56.37963055 [kJ/mol]
  Total SAPT2+                    -20.43456433 [mEh]     -12.82288271 [kcal/mol]     -53.65094127 [kJ/mol]
  Total SAPT2+dMP2                -15.21241894 [mEh]      -9.54593700 [kcal/mol]     -39.94020042 [kJ/mol]

  Special recipe for scaled SAPT0 (see Manual):
    Electrostatics sSAPT0         -63.28037000 [mEh]     -39.70903168 [kcal/mol]    -166.14258855 [kJ/mol]
    Exchange sSAPT0               122.06140368 [mEh]      76.59468719 [kcal/mol]     320.47217120 [kJ/mol]
    Induction sSAPT0              -50.64267144 [mEh]     -31.77875611 [kcal/mol]    -132.96231556 [kJ/mol]
    Dispersion sSAPT0             -20.15075825 [mEh]     -12.64479171 [kcal/mol]     -52.90580851 [kJ/mol]
  Total sSAPT0                    -12.01239602 [mEh]      -7.53789231 [kcal/mol]     -31.53854141 [kJ/mol]
  --------------------------------------------------------------------------------------------------------

*** Psi4 exiting successfully. Buy a developer a beer!
