                               Psi4 1.9.1 release

  ==> Input File <==

--------------------------------------------------------------------------
#charge=0 charge_a=0 charge_b=0 selection_a=1-2 selection_b=3-6 scaling=1.5 benchmark_Eint=-4.796 benchmark_unit=kcal/mol group=XH-N
set_num_threads(4)
memory 8 GB
basis this_basis {
    assign    def2-qzvp
}

molecule {
     0 1
    --
     0 1
     H       -0.13083        0.13151       -0.43120
     I        0.01507       -0.01526       -2.14801
    --
     0 1
     N       -0.33446        0.33646        1.96776
     H       -0.04441       -0.52413        2.41444
     H        0.24953        1.09272        2.30136
     H       -1.29594        0.52879        2.21843
}

set {
    scf_type                DF
    freeze_core             false
    do_ind_exch_sinf        true
    do_disp_exch_sinf       true
}

nrg = energy('sapt2+dmp2')
--------------------------------------------------------------------------

  //              Dimer HF             //
    Molecular point group: c1
  Charge       = 0
  Multiplicity = 1
  Basis Set: THIS_BASIS
    Blend: DEF2-QZVP
  Basis Set: (THIS_BASIS AUX)
    Blend: DEF2-UNIVERSAL-JKFIT
  @DF-RHF Final Energy:  -353.46746244330296
    Total Energy =                       -353.4674624433029635
 Dipole X            :          4.0391175           -4.1423635           -0.1032460
 Dipole Y            :         -4.0643770            4.1682723            0.1038954
 Dipole Z            :        -47.5609018           48.7771785            1.2162767
 Magnitude           :                                                    1.2250644
  Basis Set: (THIS_BASIS AUX)
    Blend: DEF2-QZVP-RI + DEF2-QZVPP-RI
	 Reference Energy          =    -353.4674624433029635 [Eh]
	 Singles Energy            =      -0.0000000000000000 [Eh]
	 Same-Spin Energy          =      -0.3474959329838022 [Eh]
	 Opposite-Spin Energy      =      -0.7793698746380046 [Eh]
	 Correlation Energy        =      -1.1268658076218068 [Eh]
	 Total Energy              =    -354.5943282509247751 [Eh]
	 SCS Total Energy          =    -354.5185382705298593 [Eh]
  //            Monomer A HF           //
    Molecular point group: c1
  Multiplicity = 1
  Basis Set: THIS_BASIS
    Blend: DEF2-QZVP
  Basis Set: (THIS_BASIS AUX)
    Blend: DEF2-UNIVERSAL-JKFIT
  @DF-RHF Final Energy:  -297.23813332362647
    Total Energy =                       -297.2381333236264709
  Basis Set: (THIS_BASIS AUX)
	 Singles Energy            =      -0.0000000000000000 [Eh]
	 Same-Spin Energy          =      -0.2872617709250314 [Eh]
	 Opposite-Spin Energy      =      -0.5587896744993522 [Eh]
	 Correlation Energy        =      -0.8460514454243837 [Eh]
	 Total Energy              =    -298.0841847690508644 [Eh]
	 SCS Total Energy          =    -298.0044348566673875 [Eh]
  //            Monomer B HF           //
    Molecular point group: c1

    Geometry (in Angstrom), charge = 0, multiplicity = 1:

       Center              X                  Y                   Z               Mass
    ------------   -----------------  -----------------  -----------------  -----------------
      Gh(H)          -0.103216787254     0.103819575714     1.214207534904     1.007825032230
      Gh(I)           0.042683212746    -0.042950424286    -0.502602465096   126.904471900000
         N           -0.306846787254     0.308769575714     3.613167534904    14.003074004430
         H           -0.016796787254    -0.551820424286     4.059847534904     1.007825032230
         H            0.277143212746     1.065029575714     3.946767534904     1.007825032230
         H           -1.268326787254     0.501099575714     3.863837534904     1.007825032230

  Charge       = 0
  Multiplicity = 1
  Basis Set: THIS_BASIS
    Blend: DEF2-QZVP
  Basis Set: (THIS_BASIS AUX)
    Blend: DEF2-UNIVERSAL-JKFIT

    Orbital Energies [Eh]
    ---------------------

    Doubly Occupied:

       1A    -15.538017     2A     -1.137905     3A     -0.631702
       4A     -0.631700     5A     -0.422786

  @DF-RHF Final Energy:   -56.22437040325867

   => Energetics <=

    Nuclear Repulsion Energy =             11.9440482653191360
    One-Electron Energy =                 -99.6126146513881849
    Two-Electron Energy =                  31.4441959828103776
    Total Energy =                        -56.2243704032586677
 Dipole X            :          5.9134914           -5.9638016           -0.0503101
 Dipole Y            :         -5.9505604            6.0011952            0.0506348
 Dipole Z            :        -69.6339761           70.2271840            0.5932080
 Magnitude           :                                                    0.5974870
  Basis Set: (THIS_BASIS AUX)
    Blend: DEF2-QZVP-RI + DEF2-QZVPP-RI
	 Reference Energy          =     -56.2243704032586677 [Eh]
	 Singles Energy            =      -0.0000000000000000 [Eh]
	 Same-Spin Energy          =      -0.0581689546372859 [Eh]
	 Opposite-Spin Energy      =      -0.2193296027708597 [Eh]
	 Correlation Energy        =      -0.2774985574081456 [Eh]
	 Total Energy              =     -56.5018689606668119 [Eh]

	 ================> DF-SCS-MP2 Energies <==================
	-----------------------------------------------------------
	 SCS Same-Spin Scale       =       0.3333333333333333 [-]
	 SCS Opposite-Spin Scale   =       1.2000000000000000 [-]
	 SCS Same-Spin Energy      =      -0.0193896515457620 [Eh]
	 SCS Opposite-Spin Energy  =      -0.2631955233250316 [Eh]
	 SCS Correlation Energy    =      -0.2825851748707936 [Eh]
	 SCS Total Energy          =     -56.5069555781294639 [Eh]
	-----------------------------------------------------------

    SAPT Results
  --------------------------------------------------------------------------------------------------------
    Electrostatics                 -8.44343869 [mEh]      -5.29833777 [kcal/mol]     -22.16824521 [kJ/mol]
      Elst10,r                     -8.31489971 [mEh]      -5.21767834 [kcal/mol]     -21.83076619 [kJ/mol]
      Elst12,r                     -0.12853897 [mEh]      -0.08065942 [kcal/mol]      -0.33747902 [kJ/mol]

    Exchange                        7.31529330 [mEh]       4.59041585 [kcal/mol]      19.20629991 [kJ/mol]
      Exch10                        7.00088536 [mEh]       4.39312189 [kcal/mol]      18.38082198 [kJ/mol]
      Exch10(S^2)                   6.94956192 [mEh]       4.36091594 [kcal/mol]      18.24607230 [kJ/mol]
      Exch11(S^2)                   0.40517386 [mEh]       0.25425043 [kcal/mol]       1.06378381 [kJ/mol]
      Exch12(S^2)                  -0.09076592 [mEh]      -0.05695647 [kcal/mol]      -0.23830588 [kJ/mol]

    Induction                      -3.91341824 [mEh]      -2.45570702 [kcal/mol]     -10.27467817 [kJ/mol]
      Ind20,r                      -2.82488594 [mEh]      -1.77264269 [kcal/mol]      -7.41673701 [kJ/mol]
      Ind22                        -0.03043930 [mEh]      -0.01910095 [kcal/mol]      -0.07991838 [kJ/mol]
      Exch-Ind20,r                  1.07866819 [mEh]       0.67687451 [kcal/mol]       2.83204295 [kJ/mol]
      Exch-Ind22                    0.01162309 [mEh]       0.00729360 [kcal/mol]       0.03051642 [kJ/mol]
      delta HF,r (2)               -1.89848432 [mEh]      -1.19131689 [kcal/mol]      -4.98446989 [kJ/mol]
      delta MP2,r (2)              -0.24989996 [mEh]      -0.15681459 [kcal/mol]      -0.65611226 [kJ/mol]

    Dispersion                     -3.30636444 [mEh]      -2.07477501 [kcal/mol]      -8.68085863 [kJ/mol]
      Disp20                       -3.85801774 [mEh]      -2.42094268 [kcal/mol]     -10.12922419 [kJ/mol]
      Disp21                        0.36015061 [mEh]       0.22599792 [kcal/mol]       0.94557530 [kJ/mol]
      Disp22 (SDQ)                  0.23136414 [mEh]       0.14518319 [kcal/mol]       0.60744648 [kJ/mol]
      Disp22 (T)                   -0.57216293 [mEh]      -0.35903766 [kcal/mol]      -1.50221356 [kJ/mol]
      Est. Disp22 (T)              -0.66492161 [mEh]      -0.41724461 [kcal/mol]      -1.74575144 [kJ/mol]
      Exch-Disp20                   0.62506016 [mEh]       0.39223117 [kcal/mol]       1.64109523 [kJ/mol]

  Total HF                         -4.95871642 [mEh]      -3.11164153 [kcal/mol]     -13.01910816 [kJ/mol]
  Total SAPT0                      -8.19167400 [mEh]      -5.14035304 [kcal/mol]     -21.50723713 [kJ/mol]
  Total SAPT2                      -8.02462125 [mEh]      -5.03552586 [kcal/mol]     -21.06864018 [kJ/mol]
  Total SAPT2+                     -8.09802810 [mEh]      -5.08158935 [kcal/mol]     -21.26136984 [kJ/mol]
  Total SAPT2+dMP2                 -8.34792806 [mEh]      -5.23840394 [kcal/mol]     -21.91748210 [kJ/mol]

  Special recipe for scaled SAPT0 (see Manual):
    Electrostatics sSAPT0          -8.31489971 [mEh]      -5.21767834 [kcal/mol]     -21.83076619 [kJ/mol]
    Exchange sSAPT0                 7.00088536 [mEh]       4.39312189 [kcal/mol]      18.38082198 [kJ/mol]
    Induction sSAPT0               -3.62062681 [mEh]      -2.27197763 [kcal/mol]      -9.50595438 [kJ/mol]
    Dispersion sSAPT0              -3.21900660 [mEh]      -2.01995714 [kcal/mol]      -8.45150067 [kJ/mol]
  Total sSAPT0                     -8.15364777 [mEh]      -5.11649122 [kcal/mol]     -21.40739926 [kJ/mol]
  --------------------------------------------------------------------------------------------------------

*** Psi4 exiting successfully. Buy a developer a beer!
