                               Psi4 1.9.1 release

  ==> Input File <==

--------------------------------------------------------------------------
#charge=0 charge_a=0 charge_b=0 selection_a=1-2 selection_b=3-6 scaling=0.8 benchmark_Eint=-5.417 benchmark_unit=kcal/mol group=XH-N
set_num_threads(4)
memory 8 GB
basis this_basis {
    assign    def2-qzvp
}

molecule {
     0 1
    --
     0 1
     H       -0.13083        0.13151       -0.43120
     I        0.01507       -0.01526       -2.14801
    --
     0 1
     N       -0.23943        0.24082        0.84825
     H        0.05062       -0.61977        1.29493
     H        0.34456        0.99708        1.18184
     H       -1.20091        0.43315        1.09891
}

set {
    scf_type                DF
    freeze_core             false
    do_ind_exch_sinf        true
    do_disp_exch_sinf       true
}

nrg = energy('sapt2+dmp2')
--------------------------------------------------------------------------

  //              Dimer HF             //
    Molecular point group: c1
  Charge       = 0
  Multiplicity = 1
  Basis Set: THIS_BASIS
    Blend: DEF2-QZVP
  Basis Set: (THIS_BASIS AUX)
    Blend: DEF2-UNIVERSAL-JKFIT
  @DF-RHF Final Energy:  -353.46085083773096
    Total Energy =                       -353.4608508377309590
 Dipole X            :          2.8596024           -3.1060150           -0.2464127
 Dipole Y            :         -2.8773285            3.1252715            0.2479431
 Dipole Z            :        -33.6669554           36.5683483            2.9013930
 Magnitude           :                                                    2.9223751
  Basis Set: (THIS_BASIS AUX)
    Blend: DEF2-QZVP-RI + DEF2-QZVPP-RI
	 Reference Energy          =    -353.4608508377309590 [Eh]
	 Singles Energy            =      -0.0000000000000000 [Eh]
	 Same-Spin Energy          =      -0.3561265890663135 [Eh]
	 Opposite-Spin Energy      =      -0.7845600165031967 [Eh]
	 Correlation Energy        =      -1.1406866055695102 [Eh]
	 Total Energy              =    -354.6015374433004581 [Eh]
	 SCS Total Energy          =    -354.5210317205568913 [Eh]
  //            Monomer A HF           //
    Molecular point group: c1
  Multiplicity = 1
  Basis Set: THIS_BASIS
    Blend: DEF2-QZVP
  Basis Set: (THIS_BASIS AUX)
    Blend: DEF2-UNIVERSAL-JKFIT
  @DF-RHF Final Energy:  -297.23815243018140
    Total Energy =                       -297.2381524301814011
  Basis Set: (THIS_BASIS AUX)
	 Singles Energy            =      -0.0000000000000000 [Eh]
	 Same-Spin Energy          =      -0.2875602763738773 [Eh]
	 Opposite-Spin Energy      =      -0.5597790213476670 [Eh]
	 Correlation Energy        =      -0.8473392977215443 [Eh]
	 Total Energy              =    -298.0854917279029337 [Eh]
	 SCS Total Energy          =    -298.0057406812565546 [Eh]
  //            Monomer B HF           //
    Molecular point group: c1

    Geometry (in Angstrom), charge = 0, multiplicity = 1:

       Center              X                  Y                   Z               Mass
    ------------   -----------------  -----------------  -----------------  -----------------
      Gh(H)          -0.114380343508     0.115054791121     1.345721015675     1.007825032230
      Gh(I)           0.031519656492    -0.031715208879    -0.371088984325   126.904471900000
         N           -0.222980343508     0.224364791121     2.625171015675    14.003074004430
         H            0.067069656492    -0.636225208879     3.071851015675     1.007825032230
         H            0.361009656492     0.980624791121     2.958761015675     1.007825032230
         H           -1.184460343508     0.416694791121     2.875831015675     1.007825032230

  Charge       = 0
  Multiplicity = 1
  Basis Set: THIS_BASIS
    Blend: DEF2-QZVP
  Basis Set: (THIS_BASIS AUX)
    Blend: DEF2-UNIVERSAL-JKFIT

    Orbital Energies [Eh]
    ---------------------

    Doubly Occupied:

       1A    -15.537940     2A     -1.137894     3A     -0.631686
       4A     -0.631684     5A     -0.422787

  @DF-RHF Final Energy:   -56.22432668148664

   => Energetics <=

    Nuclear Repulsion Energy =             11.9440687773304042
    One-Electron Energy =                 -99.6128074938054766
    Two-Electron Energy =                  31.4444120349884315
    Total Energy =                        -56.2243266814866445
 Dipole X            :          4.3291302           -4.3789555           -0.0498253
 Dipole Y            :         -4.3560275            4.4061760            0.0501485
 Dipole Z            :        -50.9692342           51.5567179            0.5874837
 Magnitude           :                                                    0.5917216
  Basis Set: (THIS_BASIS AUX)
    Blend: DEF2-QZVP-RI + DEF2-QZVPP-RI
	 Reference Energy          =     -56.2243266814866445 [Eh]
	 Singles Energy            =      -0.0000000000000000 [Eh]
	 Same-Spin Energy          =      -0.0583002572155827 [Eh]
	 Opposite-Spin Energy      =      -0.2201820472367356 [Eh]
	 Correlation Energy        =      -0.2784823044523183 [Eh]
	 Total Energy              =     -56.5028089859389624 [Eh]

	 ================> DF-SCS-MP2 Energies <==================
	-----------------------------------------------------------
	 SCS Same-Spin Scale       =       0.3333333333333333 [-]
	 SCS Opposite-Spin Scale   =       1.2000000000000000 [-]
	 SCS Same-Spin Energy      =      -0.0194334190718609 [Eh]
	 SCS Opposite-Spin Energy  =      -0.2642184566840827 [Eh]
	 SCS Correlation Energy    =      -0.2836518757559435 [Eh]
	 SCS Total Energy          =     -56.5079785572425877 [Eh]
	-----------------------------------------------------------

    SAPT Results
  --------------------------------------------------------------------------------------------------------
    Electrostatics                -86.68411780 [mEh]     -54.39510514 [kcal/mol]    -227.58911992 [kJ/mol]
      Elst10,r                    -90.30862025 [mEh]     -56.66951477 [kcal/mol]    -237.10524981 [kJ/mol]
      Elst12,r                      3.62450246 [mEh]       2.27440963 [kcal/mol]       9.51612989 [kJ/mol]

    Exchange                      189.88569358 [mEh]     119.15507166 [kcal/mol]     498.54481981 [kJ/mol]
      Exch10                      190.34908683 [mEh]     119.44585531 [kcal/mol]     499.76145861 [kJ/mol]
      Exch10(S^2)                 166.35563947 [mEh]     104.38973978 [kcal/mol]     436.76667124 [kJ/mol]
      Exch11(S^2)                   8.31455930 [mEh]       5.21746473 [kcal/mol]      21.82987243 [kJ/mol]
      Exch12(S^2)                  -8.77795255 [mEh]      -5.50824838 [kcal/mol]     -23.04651123 [kJ/mol]

    Induction                     -84.96255051 [mEh]     -53.31480536 [kcal/mol]    -223.06914563 [kJ/mol]
      Ind20,r                    -106.71982818 [mEh]     -66.96770322 [kcal/mol]    -280.19287029 [kJ/mol]
      Ind22                         1.21654081 [mEh]       0.76339088 [kcal/mol]       3.19402745 [kJ/mol]
      Exch-Ind20,r                 54.52351551 [mEh]      34.21402253 [kcal/mol]     143.15147025 [kJ/mol]
      Exch-Ind22                   -0.62153475 [mEh]      -0.39001894 [kcal/mol]      -1.63183926 [kJ/mol]
      delta HF,r (2)              -46.21587996 [mEh]     -29.00090251 [kcal/mol]    -121.33977612 [kJ/mol]
      delta MP2,r (2)              12.85463607 [mEh]       8.06640591 [kcal/mol]      33.74984234 [kJ/mol]

    Dispersion                    -29.50995917 [mEh]     -18.51777895 [kcal/mol]     -77.47838714 [kJ/mol]
      Disp20                      -38.01246071 [mEh]     -23.85317922 [kcal/mol]     -99.80170184 [kJ/mol]
      Disp21                        5.49761172 [mEh]       3.44980344 [kcal/mol]      14.43397758 [kJ/mol]
      Disp22 (SDQ)                  1.65587449 [mEh]       1.03907693 [kcal/mol]       4.34749787 [kJ/mol]
      Disp22 (T)                   -4.70487710 [mEh]      -2.95235495 [kcal/mol]     -12.35265313 [kJ/mol]
      Est. Disp22 (T)              -5.18769065 [mEh]      -3.25532503 [kcal/mol]     -13.62027993 [kJ/mol]
      Exch-Disp20                   6.53670598 [mEh]       4.10184493 [kcal/mol]      17.16211918 [kJ/mol]

  Total HF                          1.62827394 [mEh]       1.02175732 [kcal/mol]       4.27503263 [kJ/mol]
  Total SAPT0                     -29.84748079 [mEh]     -18.72957697 [kcal/mol]     -78.36455003 [kJ/mol]
  Total SAPT2                     -26.09136553 [mEh]     -16.37257905 [kcal/mol]     -68.50287075 [kJ/mol]
  Total SAPT2+                    -24.12556997 [mEh]     -15.13902372 [kcal/mol]     -63.34167523 [kJ/mol]
  Total SAPT2+dMP2                -11.27093390 [mEh]      -7.07261780 [kcal/mol]     -29.59183288 [kJ/mol]

  Special recipe for scaled SAPT0 (see Manual):
    Electrostatics sSAPT0         -90.30862025 [mEh]     -56.66951477 [kcal/mol]    -237.10524981 [kJ/mol]
    Exchange sSAPT0               190.34908683 [mEh]     119.44585531 [kcal/mol]     499.76145861 [kJ/mol]
    Induction sSAPT0              -71.25421673 [mEh]     -44.71269604 [kcal/mol]    -187.07792024 [kJ/mol]
    Dispersion sSAPT0             -28.21984392 [mEh]     -17.70821941 [kcal/mol]     -74.09119001 [kJ/mol]
  Total sSAPT0                      0.56640593 [mEh]       0.35542508 [kcal/mol]       1.48709855 [kJ/mol]
  --------------------------------------------------------------------------------------------------------

*** Psi4 exiting successfully. Buy a developer a beer!
