                               Psi4 1.9.1 release

  ==> Input File <==

--------------------------------------------------------------------------
#charge=0 charge_a=0 charge_b=0 selection_a=1-2 selection_b=3-6 scaling=1.05 benchmark_Eint=-8.049 benchmark_unit=kcal/mol group=XH-N
set_num_threads(4)
memory 8 GB
basis this_basis {
    assign    def2-qzvp
}

molecule {
     0 1
    --
     0 1
     H       -0.13083        0.13151       -0.43120
     I        0.01507       -0.01526       -2.14801
    --
     0 1
     N       -0.27337        0.27498        1.24807
     H        0.01668       -0.58561        1.69476
     H        0.31062        1.03124        1.58167
     H       -1.23485        0.46730        1.49874
}

set {
    scf_type                DF
    freeze_core             false
    do_ind_exch_sinf        true
    do_disp_exch_sinf       true
}

nrg = energy('sapt2+dmp2')
--------------------------------------------------------------------------

  //              Dimer HF             //
    Molecular point group: c1
  Charge       = 0
  Multiplicity = 1
  Basis Set: THIS_BASIS
    Blend: DEF2-QZVP
  Basis Set: (THIS_BASIS AUX)
    Blend: DEF2-UNIVERSAL-JKFIT
  @DF-RHF Final Energy:  -353.46726374303068
    Total Energy =                       -353.4672637430306850
 Dipole X            :          3.3071860           -3.4761473           -0.1689613
 Dipole Y            :         -3.3277737            3.4977888            0.1700151
 Dipole Z            :        -38.9388033           40.9286227            1.9898194
 Magnitude           :                                                    2.0042042
  Basis Set: (THIS_BASIS AUX)
    Blend: DEF2-QZVP-RI + DEF2-QZVPP-RI
	 Reference Energy          =    -353.4672637430306850 [Eh]
	 Singles Energy            =      -0.0000000000000000 [Eh]
	 Same-Spin Energy          =      -0.3524070559549176 [Eh]
	 Opposite-Spin Energy      =      -0.7831377976281713 [Eh]
	 Correlation Energy        =      -1.1355448535830890 [Eh]
	 Total Energy              =    -354.6028085966137837 [Eh]
	 SCS Total Energy          =    -354.5244981188361066 [Eh]
  //            Monomer A HF           //
    Molecular point group: c1
  Multiplicity = 1
  Basis Set: THIS_BASIS
    Blend: DEF2-QZVP
  Basis Set: (THIS_BASIS AUX)
    Blend: DEF2-UNIVERSAL-JKFIT
  @DF-RHF Final Energy:  -297.23814408694631
    Total Energy =                       -297.2381440869463063
  Basis Set: (THIS_BASIS AUX)
	 Singles Energy            =      -0.0000000000000000 [Eh]
	 Same-Spin Energy          =      -0.2874224926911940 [Eh]
	 Opposite-Spin Energy      =      -0.5592967783573943 [Eh]
	 Correlation Energy        =      -0.8467192710485882 [Eh]
	 Total Energy              =    -298.0848633579948910 [Eh]
	 SCS Total Energy          =    -298.0051077185389090 [Eh]
  //            Monomer B HF           //
    Molecular point group: c1

    Geometry (in Angstrom), charge = 0, multiplicity = 1:

       Center              X                  Y                   Z               Mass
    ------------   -----------------  -----------------  -----------------  -----------------
      Gh(H)          -0.110393275222     0.111041948084     1.298752343834     1.007825032230
      Gh(I)           0.035506724778    -0.035728051916    -0.418057656166   126.904471900000
         N           -0.252933275222     0.254511948084     2.978022343834    14.003074004430
         H            0.037116724778    -0.606078051916     3.424712343834     1.007825032230
         H            0.331056724778     1.010771948084     3.311622343834     1.007825032230
         H           -1.214413275222     0.446831948084     3.228692343834     1.007825032230

  Charge       = 0
  Multiplicity = 1
  Basis Set: THIS_BASIS
    Blend: DEF2-QZVP
  Basis Set: (THIS_BASIS AUX)
    Blend: DEF2-UNIVERSAL-JKFIT

    Orbital Energies [Eh]
    ---------------------

    Doubly Occupied:

       1A    -15.538050     2A     -1.137948     3A     -0.631740
       4A     -0.631736     5A     -0.422824

  @DF-RHF Final Energy:   -56.22438255388815

   => Energetics <=

    Nuclear Repulsion Energy =             11.9440393891328629
    One-Electron Energy =                 -99.6122469486025182
    Two-Electron Energy =                  31.4438250055815018
    Total Energy =                        -56.2243825538881481
 Dipole X            :          4.8948153           -4.9449838           -0.0501686
 Dipole Y            :         -4.9253652            4.9758558            0.0504905
 Dipole Z            :        -57.6331684           58.2246983            0.5915299
 Magnitude           :                                                    0.5957968
  Basis Set: (THIS_BASIS AUX)
    Blend: DEF2-QZVP-RI + DEF2-QZVPP-RI
	 Reference Energy          =     -56.2243825538881481 [Eh]
	 Singles Energy            =      -0.0000000000000000 [Eh]
	 Same-Spin Energy          =      -0.0582287330216376 [Eh]
	 Opposite-Spin Energy      =      -0.2196808566139835 [Eh]
	 Correlation Energy        =      -0.2779095896356211 [Eh]
	 Total Energy              =     -56.5022921435237677 [Eh]

	 ================> DF-SCS-MP2 Energies <==================
	-----------------------------------------------------------
	 SCS Same-Spin Scale       =       0.3333333333333333 [-]
	 SCS Opposite-Spin Scale   =       1.2000000000000000 [-]
	 SCS Same-Spin Energy      =      -0.0194095776738792 [Eh]
	 SCS Opposite-Spin Energy  =      -0.2636170279367802 [Eh]
	 SCS Correlation Energy    =      -0.2830266056106594 [Eh]
	 SCS Total Energy          =     -56.5074091594988062 [Eh]
	-----------------------------------------------------------

    SAPT Results
  --------------------------------------------------------------------------------------------------------
    Electrostatics                -35.83051348 [mEh]     -22.48398666 [kcal/mol]     -94.07300018 [kJ/mol]
      Elst10,r                    -36.45724438 [mEh]     -22.87726624 [kcal/mol]     -95.71848193 [kJ/mol]
      Elst12,r                      0.62673090 [mEh]       0.39327958 [kcal/mol]       1.64548175 [kJ/mol]

    Exchange                       62.05132045 [mEh]      38.93779144 [kcal/mol]     162.91571940 [kJ/mol]
      Exch10                       61.26375719 [mEh]      38.44358804 [kcal/mol]     160.84797234 [kJ/mol]
      Exch10(S^2)                  58.26630285 [mEh]      36.56265704 [kcal/mol]     152.97815707 [kJ/mol]
      Exch11(S^2)                   3.27309598 [mEh]       2.05389874 [kcal/mol]       8.59351231 [kJ/mol]
      Exch12(S^2)                  -2.48553272 [mEh]      -1.55969533 [kcal/mol]      -6.52576526 [kJ/mol]

    Induction                     -28.79742834 [mEh]     -18.07065911 [kcal/mol]     -75.60763770 [kJ/mol]
      Ind20,r                     -26.42970032 [mEh]     -16.58488734 [kcal/mol]     -69.39116862 [kJ/mol]
      Ind22                         0.23933767 [mEh]       0.15018666 [kcal/mol]       0.62838097 [kJ/mol]
      Exch-Ind20,r                 14.64368278 [mEh]       9.18904968 [kcal/mol]      38.44698385 [kJ/mol]
      Exch-Ind22                   -0.13260782 [mEh]      -0.08321266 [kcal/mol]      -0.34816179 [kJ/mol]
      delta HF,r (2)              -17.75759748 [mEh]     -11.14306065 [kcal/mol]     -46.62256575 [kJ/mol]
      delta MP2,r (2)               0.63945681 [mEh]       0.40126521 [kcal/mol]       1.67889363 [kJ/mol]

    Dispersion                    -12.76556685 [mEh]      -8.01051414 [kcal/mol]     -33.51599115 [kJ/mol]
      Disp20                      -16.72260015 [mEh]     -10.49359002 [kcal/mol]     -43.90518063 [kJ/mol]
      Disp21                        1.86630083 [mEh]       1.17112145 [kcal/mol]       4.89997217 [kJ/mol]
      Disp22 (SDQ)                  0.94761915 [mEh]       0.59463999 [kcal/mol]       2.48797373 [kJ/mol]
      Disp22 (T)                   -2.20167726 [mEh]      -1.38157334 [kcal/mol]      -5.78050286 [kJ/mol]
      Est. Disp22 (T)              -2.50301311 [mEh]      -1.57066444 [kcal/mol]      -6.57166002 [kJ/mol]
      Exch-Disp20                   3.64612642 [mEh]       2.28797887 [kcal/mol]       9.57290361 [kJ/mol]

  Total HF                         -4.73710220 [mEh]      -2.97257651 [kcal/mol]     -12.43726010 [kJ/mol]
  Total SAPT0                     -17.81357592 [mEh]     -11.17818765 [kcal/mol]     -46.76953713 [kJ/mol]
  Total SAPT2                     -16.29255191 [mEh]     -10.22373067 [kcal/mol]     -42.77608914 [kJ/mol]
  Total SAPT2+                    -15.98164504 [mEh]     -10.02863367 [kcal/mol]     -41.95980326 [kJ/mol]
  Total SAPT2+dMP2                -15.34218822 [mEh]      -9.62736846 [kcal/mol]     -40.28090964 [kJ/mol]

  Special recipe for scaled SAPT0 (see Manual):
    Electrostatics sSAPT0         -36.45724438 [mEh]     -22.87726624 [kcal/mol]     -95.71848193 [kJ/mol]
    Exchange sSAPT0                61.26375719 [mEh]      38.44358804 [kcal/mol]     160.84797234 [kJ/mol]
    Induction sSAPT0              -27.16536740 [mEh]     -17.04652540 [kcal/mol]     -71.32266229 [kJ/mol]
    Dispersion sSAPT0             -12.48431453 [mEh]      -7.83402564 [kcal/mol]     -32.77756327 [kJ/mol]
  Total sSAPT0                    -14.84316912 [mEh]      -9.31422924 [kcal/mol]     -38.97073515 [kJ/mol]
  --------------------------------------------------------------------------------------------------------

*** Psi4 exiting successfully. Buy a developer a beer!
