                               Psi4 1.9.1 release

  ==> Input File <==

--------------------------------------------------------------------------
#charge=0 charge_a=0 charge_b=0 selection_a=1-2 selection_b=3-6 scaling=0.95 benchmark_Eint=-8.040 benchmark_unit=kcal/mol group=XH-N
set_num_threads(4)
memory 8 GB
basis this_basis {
    assign    def2-qzvp
}

molecule {
     0 1
    --
     0 1
     H       -0.13083        0.13151       -0.43120
     I        0.01507       -0.01526       -2.14801
    --
     0 1
     N       -0.25980        0.26131        1.08814
     H        0.03026       -0.59927        1.53482
     H        0.32420        1.01757        1.42174
     H       -1.22128        0.45364        1.33881
}

set {
    scf_type                DF
    freeze_core             false
    do_ind_exch_sinf        true
    do_disp_exch_sinf       true
}

nrg = energy('sapt2+dmp2')
--------------------------------------------------------------------------

  //              Dimer HF             //
    Molecular point group: c1
  Charge       = 0
  Multiplicity = 1
  Basis Set: THIS_BASIS
    Blend: DEF2-QZVP
  Basis Set: (THIS_BASIS AUX)
    Blend: DEF2-UNIVERSAL-JKFIT
  @DF-RHF Final Energy:  -353.46588228992476
    Total Energy =                       -353.4658822899247639
 Dipole X            :          3.1314930           -3.3281315           -0.1966385
 Dipole Y            :         -3.1508709            3.3487391            0.1978682
 Dipole Z            :        -36.8688698           39.1844940            2.3156241
 Magnitude           :                                                    2.3323665
  Basis Set: (THIS_BASIS AUX)
    Blend: DEF2-QZVP-RI + DEF2-QZVPP-RI
	 Reference Energy          =    -353.4658822899247639 [Eh]
	 Singles Energy            =      -0.0000000000000000 [Eh]
	 Same-Spin Energy          =      -0.3540411789238556 [Eh]
	 Opposite-Spin Energy      =      -0.7840685683606097 [Eh]
	 Correlation Energy        =      -1.1381097472844652 [Eh]
	 Total Energy              =    -354.6039920372092524 [Eh]
	 SCS Total Energy          =    -354.5247782982654599 [Eh]
  //            Monomer A HF           //
    Molecular point group: c1
  Multiplicity = 1
  Basis Set: THIS_BASIS
    Blend: DEF2-QZVP
  Basis Set: (THIS_BASIS AUX)
    Blend: DEF2-UNIVERSAL-JKFIT
  @DF-RHF Final Energy:  -297.23814676915993
    Total Energy =                       -297.2381467691599255
  Basis Set: (THIS_BASIS AUX)
	 Singles Energy            =      -0.0000000000000000 [Eh]
	 Same-Spin Energy          =      -0.2874751829292143 [Eh]
	 Opposite-Spin Energy      =      -0.5594798871903932 [Eh]
	 Correlation Energy        =      -0.8469550701196076 [Eh]
	 Total Energy              =    -298.0851018392795595 [Eh]
	 SCS Total Energy          =    -298.0053476947647937 [Eh]
  //            Monomer B HF           //
    Molecular point group: c1

    Geometry (in Angstrom), charge = 0, multiplicity = 1:

       Center              X                  Y                   Z               Mass
    ------------   -----------------  -----------------  -----------------  -----------------
      Gh(H)          -0.111987536761     0.112647678888     1.317540033611     1.007825032230
      Gh(I)           0.033912463239    -0.034122321112    -0.399269966389   126.904471900000
         N           -0.240957536761     0.242447678888     2.836880033611    14.003074004430
         H            0.049102463239    -0.618132321112     3.283560033611     1.007825032230
         H            0.343042463239     0.998707678888     3.170480033611     1.007825032230
         H           -1.202437536761     0.434777678888     3.087550033611     1.007825032230

  Charge       = 0
  Multiplicity = 1
  Basis Set: THIS_BASIS
    Blend: DEF2-QZVP
  Basis Set: (THIS_BASIS AUX)
    Blend: DEF2-UNIVERSAL-JKFIT

    Orbital Energies [Eh]
    ---------------------

    Doubly Occupied:

       1A    -15.538040     2A     -1.137947     3A     -0.631738
       4A     -0.631734     5A     -0.422822

  @DF-RHF Final Energy:   -56.22437374170290

   => Energetics <=

    Nuclear Repulsion Energy =             11.9440476337236188
    One-Electron Energy =                 -99.6122804806343254
    Two-Electron Energy =                  31.4438591052078138
    Total Energy =                        -56.2243737417028981
 Dipole X            :          4.6685779           -4.7186374           -0.0500595
 Dipole Y            :         -4.6975214            4.7479119            0.0503906
 Dipole Z            :        -54.9671486           55.5574763            0.5903277
 Magnitude           :                                                    0.5945856
  Basis Set: (THIS_BASIS AUX)
    Blend: DEF2-QZVP-RI + DEF2-QZVPP-RI
	 Reference Energy          =     -56.2243737417028981 [Eh]
	 Singles Energy            =      -0.0000000000000000 [Eh]
	 Same-Spin Energy          =      -0.0582436489330342 [Eh]
	 Opposite-Spin Energy      =      -0.2198110978390222 [Eh]
	 Correlation Energy        =      -0.2780547467720564 [Eh]
	 Total Energy              =     -56.5024284884749548 [Eh]

	 ================> DF-SCS-MP2 Energies <==================
	-----------------------------------------------------------
	 SCS Same-Spin Scale       =       0.3333333333333333 [-]
	 SCS Opposite-Spin Scale   =       1.2000000000000000 [-]
	 SCS Same-Spin Energy      =      -0.0194145496443447 [Eh]
	 SCS Opposite-Spin Energy  =      -0.2637733174068266 [Eh]
	 SCS Correlation Energy    =      -0.2831878670511714 [Eh]
	 SCS Total Energy          =     -56.5075616087540666 [Eh]
	-----------------------------------------------------------

    SAPT Results
  --------------------------------------------------------------------------------------------------------
    Electrostatics                -51.28168009 [mEh]     -32.17974009 [kcal/mol]    -134.64003252 [kJ/mol]
      Elst10,r                    -52.68216726 [mEh]     -33.05855905 [kcal/mol]    -138.31701107 [kJ/mol]
      Elst12,r                      1.40048717 [mEh]       0.87881897 [kcal/mol]       3.67697855 [kJ/mol]

    Exchange                       97.87436534 [mEh]      61.41709149 [kcal/mol]     256.96911080 [kJ/mol]
      Exch10                       97.26182345 [mEh]      61.03271565 [kcal/mol]     255.36088228 [kJ/mol]
      Exch10(S^2)                  90.22312105 [mEh]      56.61586321 [kcal/mol]     236.88077168 [kJ/mol]
      Exch11(S^2)                   4.88334764 [mEh]       3.06434691 [kcal/mol]      12.82122747 [kJ/mol]
      Exch12(S^2)                  -4.27080575 [mEh]      -2.67997107 [kcal/mol]     -11.21299895 [kJ/mol]

    Induction                     -44.68170553 [mEh]     -28.03819352 [kcal/mol]    -117.31180170 [kJ/mol]
      Ind20,r                     -45.76692836 [mEh]     -28.71918113 [kcal/mol]    -120.16105386 [kJ/mol]
      Ind22                         0.51869460 [mEh]       0.32548578 [kcal/mol]       1.36183249 [kJ/mol]
      Exch-Ind20,r                 25.28874652 [mEh]      15.86892802 [kcal/mol]      66.39559485 [kJ/mol]
      Exch-Ind22                   -0.28660731 [mEh]      -0.17984880 [kcal/mol]      -0.75248740 [kJ/mol]
      delta HF,r (2)              -27.46325341 [mEh]     -17.23345170 [kcal/mol]     -72.10476191 [kJ/mol]
      delta MP2,r (2)               3.02764243 [mEh]       1.89987431 [kcal/mol]       7.94907412 [kJ/mol]

    Dispersion                    -17.64514336 [mEh]     -11.07249462 [kcal/mol]     -46.32731750 [kJ/mol]
      Disp20                      -23.26630214 [mEh]     -14.59982501 [kcal/mol]     -61.08566786 [kJ/mol]
      Disp21                        2.85636706 [mEh]       1.79239739 [kcal/mol]       7.49939068 [kJ/mol]
      Disp22 (SDQ)                  1.22131456 [mEh]       0.76638645 [kcal/mol]       3.20656092 [kJ/mol]
      Disp22 (T)                   -2.98974946 [mEh]      -1.87609611 [kcal/mol]      -7.84958611 [kJ/mol]
      Est. Disp22 (T)              -3.35013580 [mEh]      -2.10224195 [kcal/mol]      -8.79578032 [kJ/mol]
      Exch-Disp20                   4.89361296 [mEh]       3.07078850 [kcal/mol]      12.84817907 [kJ/mol]

  Total HF                         -3.36177906 [mEh]      -2.10954821 [kcal/mol]      -8.82634971 [kJ/mol]
  Total SAPT0                     -21.73446824 [mEh]     -13.63858473 [kcal/mol]     -57.06383850 [kJ/mol]
  Total SAPT2                     -19.48935189 [mEh]     -12.22975295 [kcal/mol]     -51.16928634 [kJ/mol]
  Total SAPT2+                    -18.76180607 [mEh]     -11.77321105 [kcal/mol]     -49.25911505 [kJ/mol]
  Total SAPT2+dMP2                -15.73416363 [mEh]      -9.87333674 [kcal/mol]     -41.31004093 [kJ/mol]

  Special recipe for scaled SAPT0 (see Manual):
    Electrostatics sSAPT0         -52.68216726 [mEh]     -33.05855905 [kcal/mol]    -138.31701107 [kJ/mol]
    Exchange sSAPT0                97.26182345 [mEh]      61.03271565 [kcal/mol]     255.36088228 [kJ/mol]
    Induction sSAPT0              -41.54902823 [mEh]     -26.07240884 [kcal/mol]    -109.08695858 [kJ/mol]
    Dispersion sSAPT0             -17.13569762 [mEh]     -10.75281260 [kcal/mol]     -44.98976791 [kJ/mol]
  Total sSAPT0                    -14.10506966 [mEh]      -8.85106484 [kcal/mol]     -37.03285529 [kJ/mol]
  --------------------------------------------------------------------------------------------------------

*** Psi4 exiting successfully. Buy a developer a beer!
