                               Psi4 1.9.1 release

  ==> Input File <==

--------------------------------------------------------------------------
#charge=0 charge_a=0 charge_b=0 selection_a=1-2 selection_b=3-6 scaling=2.0 benchmark_Eint=-2.095 benchmark_unit=kcal/mol group=XH-N
set_num_threads(4)
memory 8 GB
basis this_basis {
    assign    def2-qzvp
}

molecule {
     0 1
    --
     0 1
     H       -0.13083        0.13151       -0.43120
     I        0.01507       -0.01526       -2.14801
    --
     0 1
     N       -0.40234        0.40478        2.76742
     H       -0.11229       -0.45581        3.21410
     H        0.18166        1.16104        3.10102
     H       -1.36382        0.59711        3.01808
}

set {
    scf_type                DF
    freeze_core             false
    do_ind_exch_sinf        true
    do_disp_exch_sinf       true
}

nrg = energy('sapt2+dmp2')
--------------------------------------------------------------------------

  //              Dimer HF             //
    Molecular point group: c1
  Charge       = 0
  Multiplicity = 1
  Basis Set: THIS_BASIS
    Blend: DEF2-QZVP
  Basis Set: (THIS_BASIS AUX)
    Blend: DEF2-UNIVERSAL-JKFIT
  @DF-RHF Final Energy:  -353.46515827208634
    Total Energy =                       -353.4651582720863416
 Dipole X            :          4.7997350           -4.8826138           -0.0828788
 Dipole Y            :         -4.8299328            4.9133352            0.0834024
 Dipole Z            :        -56.5213222           57.4978461            0.9765239
 Magnitude           :                                                    0.9835771
  Basis Set: (THIS_BASIS AUX)
    Blend: DEF2-QZVP-RI + DEF2-QZVPP-RI
	 Reference Energy          =    -353.4651582720863416 [Eh]
	 Singles Energy            =      -0.0000000000000000 [Eh]
	 Same-Spin Energy          =      -0.3459249691317425 [Eh]
	 Opposite-Spin Energy      =      -0.7781118234341410 [Eh]
	 Correlation Energy        =      -1.1240367925658834 [Eh]
	 Total Energy              =    -354.5891950646522446 [Eh]
	 SCS Total Energy          =    -354.5142007832512263 [Eh]
  //            Monomer A HF           //
    Molecular point group: c1
  Multiplicity = 1
  Basis Set: THIS_BASIS
    Blend: DEF2-QZVP
  Basis Set: (THIS_BASIS AUX)
    Blend: DEF2-UNIVERSAL-JKFIT
  @DF-RHF Final Energy:  -297.23812690050221
    Total Energy =                       -297.2381269005022091
  Basis Set: (THIS_BASIS AUX)
	 Singles Energy            =      -0.0000000000000000 [Eh]
	 Same-Spin Energy          =      -0.2871981457709178 [Eh]
	 Opposite-Spin Energy      =      -0.5586033316465137 [Eh]
	 Correlation Energy        =      -0.8458014774174315 [Eh]
	 Total Energy              =    -298.0839283779196194 [Eh]
	 SCS Total Energy          =    -298.0041836137349947 [Eh]
  //            Monomer B HF           //
    Molecular point group: c1

    Geometry (in Angstrom), charge = 0, multiplicity = 1:

       Center              X                  Y                   Z               Mass
    ------------   -----------------  -----------------  -----------------  -----------------
      Gh(H)          -0.095242720216     0.095793750572     1.120268328483     1.007825032230
      Gh(I)           0.050657279784    -0.050976249428    -0.596541671517   126.904471900000
         N           -0.366752720216     0.369063750572     4.318888328483    14.003074004430
         H           -0.076702720216    -0.491526249428     4.765568328483     1.007825032230
         H            0.217247279784     1.125323750572     4.652488328483     1.007825032230
         H           -1.328232720216     0.561393750572     4.569548328483     1.007825032230

  Charge       = 0
  Multiplicity = 1
  Basis Set: THIS_BASIS
    Blend: DEF2-QZVP
  Basis Set: (THIS_BASIS AUX)
    Blend: DEF2-UNIVERSAL-JKFIT

    Orbital Energies [Eh]
    ---------------------

    Doubly Occupied:

       1A    -15.537873     2A     -1.137813     3A     -0.631620
       4A     -0.631619     5A     -0.422710

  @DF-RHF Final Energy:   -56.22432834387554

   => Energetics <=

    Nuclear Repulsion Energy =             11.9440338461567688
    One-Electron Energy =                 -99.6134515237675373
    Two-Electron Energy =                  31.4450893337352255
    Total Energy =                        -56.2243283438755412
 Dipole X            :          7.0454474           -7.0958407           -0.0503933
 Dipole Y            :         -7.0898711            7.1405900            0.0507190
 Dipole Z            :        -82.9691655           83.5633553            0.5941899
 Magnitude           :                                                    0.5984760
  Basis Set: (THIS_BASIS AUX)
    Blend: DEF2-QZVP-RI + DEF2-QZVPP-RI
	 Reference Energy          =     -56.2243283438755412 [Eh]
	 Singles Energy            =      -0.0000000000000000 [Eh]
	 Same-Spin Energy          =      -0.0581457277145263 [Eh]
	 Opposite-Spin Energy      =      -0.2192469707564612 [Eh]
	 Correlation Energy        =      -0.2773926984709876 [Eh]
	 Total Energy              =     -56.5017210423465315 [Eh]

	 ================> DF-SCS-MP2 Energies <==================
	-----------------------------------------------------------
	 SCS Same-Spin Scale       =       0.3333333333333333 [-]
	 SCS Opposite-Spin Scale   =       1.2000000000000000 [-]
	 SCS Same-Spin Energy      =      -0.0193819092381754 [Eh]
	 SCS Opposite-Spin Energy  =      -0.2630963649077535 [Eh]
	 SCS Correlation Energy    =      -0.2824782741459289 [Eh]
	 SCS Total Energy          =     -56.5068066180214714 [Eh]
	-----------------------------------------------------------

    SAPT Results
  --------------------------------------------------------------------------------------------------------
    Electrostatics                 -2.82585225 [mEh]      -1.77324906 [kcal/mol]      -7.41927406 [kJ/mol]
      Elst10,r                     -2.77473812 [mEh]      -1.74117446 [kcal/mol]      -7.28507394 [kJ/mol]
      Elst12,r                     -0.05111413 [mEh]      -0.03207460 [kcal/mol]      -0.13420012 [kJ/mol]

    Exchange                        0.61246617 [mEh]       0.38432832 [kcal/mol]       1.60802970 [kJ/mol]
      Exch10                        0.56496298 [mEh]       0.35451962 [kcal/mol]       1.48331010 [kJ/mol]
      Exch10(S^2)                   0.56452783 [mEh]       0.35424656 [kcal/mol]       1.48216761 [kJ/mol]
      Exch11(S^2)                   0.02917830 [mEh]       0.01830966 [kcal/mol]       0.07660761 [kJ/mol]
      Exch12(S^2)                   0.01832489 [mEh]       0.01149904 [kcal/mol]       0.04811199 [kJ/mol]

    Induction                      -0.51848781 [mEh]      -0.32535601 [kcal/mol]      -1.36128956 [kJ/mol]
      Ind20,r                      -0.41342220 [mEh]      -0.25942635 [kcal/mol]      -1.08543983 [kJ/mol]
      Ind22                        -0.00549402 [mEh]      -0.00344755 [kcal/mol]      -0.01442455 [kJ/mol]
      Exch-Ind20,r                  0.05874294 [mEh]       0.03686175 [kcal/mol]       0.15422958 [kJ/mol]
      Exch-Ind22                    0.00078064 [mEh]       0.00048986 [kcal/mol]       0.00204958 [kJ/mol]
      delta HF,r (2)               -0.13857331 [mEh]      -0.08695607 [kcal/mol]      -0.36382418 [kJ/mol]
      delta MP2,r (2)              -0.02052187 [mEh]      -0.01287767 [kcal/mol]      -0.05388016 [kJ/mol]

    Dispersion                     -0.82937257 [mEh]      -0.52043915 [kcal/mol]      -2.17751739 [kJ/mol]
      Disp20                       -0.87442762 [mEh]      -0.54871162 [kcal/mol]      -2.29580940 [kJ/mol]
      Disp21                        0.10664766 [mEh]       0.06692242 [kcal/mol]       0.28000340 [kJ/mol]
      Disp22 (SDQ)                  0.04012409 [mEh]       0.02517824 [kcal/mol]       0.10534578 [kJ/mol]
      Disp22 (T)                   -0.14074608 [mEh]      -0.08831950 [kcal/mol]      -0.36952878 [kJ/mol]
      Est. Disp22 (T)              -0.16237383 [mEh]      -0.10189112 [kcal/mol]      -0.42631244 [kJ/mol]
      Exch-Disp20                   0.06065713 [mEh]       0.03806292 [kcal/mol]       0.15925528 [kJ/mol]

  Total HF                         -2.70302771 [mEh]      -1.69617550 [kcal/mol]      -7.09679827 [kJ/mol]
  Total SAPT0                      -3.51679820 [mEh]      -2.20682419 [kcal/mol]      -9.23335240 [kJ/mol]
  Total SAPT2                      -3.52512252 [mEh]      -2.21204778 [kcal/mol]      -9.25520789 [kJ/mol]
  Total SAPT2+                     -3.54072460 [mEh]      -2.22183823 [kcal/mol]      -9.29617116 [kJ/mol]
  Total SAPT2+dMP2                 -3.56124647 [mEh]      -2.23471590 [kcal/mol]      -9.35005132 [kJ/mol]

  Special recipe for scaled SAPT0 (see Manual):
    Electrostatics sSAPT0          -2.77473812 [mEh]      -1.74117446 [kcal/mol]      -7.28507394 [kJ/mol]
    Exchange sSAPT0                 0.56496298 [mEh]       0.35451962 [kcal/mol]       1.48331010 [kJ/mol]
    Induction sSAPT0               -0.49311662 [mEh]      -0.30943535 [kcal/mol]      -1.29467751 [kJ/mol]
    Dispersion sSAPT0              -0.81363011 [mEh]      -0.51056060 [kcal/mol]      -2.13618557 [kJ/mol]
  Total sSAPT0                     -3.51652188 [mEh]      -2.20665079 [kcal/mol]      -9.23262692 [kJ/mol]
  --------------------------------------------------------------------------------------------------------

*** Psi4 exiting successfully. Buy a developer a beer!
