                               Psi4 1.9.1 release

  ==> Input File <==

--------------------------------------------------------------------------
#charge=0 charge_a=0 charge_b=0 selection_a=1-2 selection_b=3-6 scaling=1.1 benchmark_Eint=-7.834 benchmark_unit=kcal/mol group=XH-N
set_num_threads(4)
memory 8 GB
basis this_basis {
    assign    def2-qzvp
}

molecule {
     0 1
    --
     0 1
     H       -0.13083        0.13151       -0.43120
     I        0.01507       -0.01526       -2.14801
    --
     0 1
     N       -0.28016        0.28181        1.32804
     H        0.00989       -0.57878        1.77472
     H        0.30384        1.03807        1.66164
     H       -1.24164        0.47414        1.57870
}

set {
    scf_type                DF
    freeze_core             false
    do_ind_exch_sinf        true
    do_disp_exch_sinf       true
}

nrg = energy('sapt2+dmp2')
--------------------------------------------------------------------------

  //              Dimer HF             //
    Molecular point group: c1
  Charge       = 0
  Multiplicity = 1
  Basis Set: THIS_BASIS
    Blend: DEF2-QZVP
  Basis Set: (THIS_BASIS AUX)
    Blend: DEF2-UNIVERSAL-JKFIT
  @DF-RHF Final Energy:  -353.46767556136751
    Total Energy =                       -353.4676755613675141
 Dipole X            :          3.3929619           -3.5501813           -0.1572195
 Dipole Y            :         -3.4140832            3.5722875            0.1582043
 Dipole Z            :        -39.9490837           41.8007061            1.8516225
 Magnitude           :                                                    1.8650073
  Basis Set: (THIS_BASIS AUX)
    Blend: DEF2-QZVP-RI + DEF2-QZVPP-RI
	 Reference Energy          =    -353.4676755613675141 [Eh]
	 Singles Energy            =      -0.0000000000000000 [Eh]
	 Same-Spin Energy          =      -0.3516223099623612 [Eh]
	 Opposite-Spin Energy      =      -0.7825999643348541 [Eh]
	 Correlation Energy        =      -1.1342222742972154 [Eh]
	 Total Energy              =    -354.6018978356647153 [Eh]
	 SCS Total Energy          =    -354.5240029552234660 [Eh]
  //            Monomer A HF           //
    Molecular point group: c1
  Multiplicity = 1
  Basis Set: THIS_BASIS
    Blend: DEF2-QZVP
  Basis Set: (THIS_BASIS AUX)
    Blend: DEF2-UNIVERSAL-JKFIT
  @DF-RHF Final Energy:  -297.23814282487467
    Total Energy =                       -297.2381428248746715
  Basis Set: (THIS_BASIS AUX)
	 Singles Energy            =      -0.0000000000000000 [Eh]
	 Same-Spin Energy          =      -0.2873972829250552 [Eh]
	 Opposite-Spin Energy      =      -0.5592119363524725 [Eh]
	 Correlation Energy        =      -0.8466092192775276 [Eh]
	 Total Energy              =    -298.0847520441521965 [Eh]
	 SCS Total Energy          =    -298.0049962428059871 [Eh]
  //            Monomer B HF           //
    Molecular point group: c1

    Geometry (in Angstrom), charge = 0, multiplicity = 1:

       Center              X                  Y                   Z               Mass
    ------------   -----------------  -----------------  -----------------  -----------------
      Gh(H)          -0.109595696151     0.110239530984     1.289358085411     1.007825032230
      Gh(I)           0.036304303849    -0.036530469016    -0.427451914589   126.904471900000
         N           -0.258925696151     0.260539530984     3.048598085411    14.003074004430
         H            0.031124303849    -0.600050469016     3.495278085411     1.007825032230
         H            0.325074303849     1.016799530984     3.382198085411     1.007825032230
         H           -1.220405696151     0.452869530984     3.299258085411     1.007825032230

  Charge       = 0
  Multiplicity = 1
  Basis Set: THIS_BASIS
    Blend: DEF2-QZVP
  Basis Set: (THIS_BASIS AUX)
    Blend: DEF2-UNIVERSAL-JKFIT

    Orbital Energies [Eh]
    ---------------------

    Doubly Occupied:

       1A    -15.538051     2A     -1.137945     3A     -0.631737
       4A     -0.631735     5A     -0.422820

  @DF-RHF Final Energy:   -56.22438352606556

   => Energetics <=

    Nuclear Repulsion Energy =             11.9440338461567706
    One-Electron Energy =                 -99.6122558670779483
    Two-Electron Energy =                  31.4438384948556191
    Total Energy =                        -56.2243835260655587
 Dipole X            :          5.0080041           -5.0582053           -0.0502012
 Dipole Y            :         -5.0392539            5.0897795            0.0505256
 Dipole Z            :        -58.9664213           59.5583487            0.5919275
 Magnitude           :                                                    0.5961972
  Basis Set: (THIS_BASIS AUX)
    Blend: DEF2-QZVP-RI + DEF2-QZVPP-RI
	 Reference Energy          =     -56.2243835260655587 [Eh]
	 Singles Energy            =      -0.0000000000000000 [Eh]
	 Same-Spin Energy          =      -0.0582204121085033 [Eh]
	 Opposite-Spin Energy      =      -0.2196207183143371 [Eh]
	 Correlation Energy        =      -0.2778411304228404 [Eh]
	 Total Energy              =     -56.5022246564884014 [Eh]

	 ================> DF-SCS-MP2 Energies <==================
	-----------------------------------------------------------
	 SCS Same-Spin Scale       =       0.3333333333333333 [-]
	 SCS Opposite-Spin Scale   =       1.2000000000000000 [-]
	 SCS Same-Spin Energy      =      -0.0194068040361678 [Eh]
	 SCS Opposite-Spin Energy  =      -0.2635448619772045 [Eh]
	 SCS Correlation Energy    =      -0.2829516660133723 [Eh]
	 SCS Total Energy          =     -56.5073351920789335 [Eh]
	-----------------------------------------------------------

    SAPT Results
  --------------------------------------------------------------------------------------------------------
    Electrostatics                -30.00747443 [mEh]     -18.82997449 [kcal/mol]     -78.78461326 [kJ/mol]
      Elst10,r                    -30.38854912 [mEh]     -19.06910246 [kcal/mol]     -79.78512471 [kJ/mol]
      Elst12,r                      0.38107469 [mEh]       0.23912798 [kcal/mol]       1.00051145 [kJ/mol]

    Exchange                       49.24429025 [mEh]      30.90125866 [kcal/mol]     129.29086624 [kJ/mol]
      Exch10                       48.45643967 [mEh]      30.40687496 [kcal/mol]     127.22236483 [kJ/mol]
      Exch10(S^2)                  46.51726447 [mEh]      29.19002415 [kcal/mol]     122.13106103 [kJ/mol]
      Exch11(S^2)                   2.65020024 [mEh]       1.66302576 [kcal/mol]       6.95809977 [kJ/mol]
      Exch12(S^2)                  -1.86234966 [mEh]      -1.16864206 [kcal/mol]      -4.88959836 [kJ/mol]

    Induction                     -23.07094830 [mEh]     -14.47723863 [kcal/mol]     -60.57276642 [kJ/mol]
      Ind20,r                     -20.19976291 [mEh]     -12.67554260 [kcal/mol]     -53.03447022 [kJ/mol]
      Ind22                         0.14792207 [mEh]       0.09282250 [kcal/mol]       0.38836933 [kJ/mol]
      Exch-Ind20,r                 11.06077289 [mEh]       6.94073978 [kcal/mol]      29.04005522 [kJ/mol]
      Exch-Ind22                   -0.08099760 [mEh]      -0.05082676 [kcal/mol]      -0.21265918 [kJ/mol]
      delta HF,r (2)              -14.07811096 [mEh]      -8.83414800 [kcal/mol]     -36.96207523 [kJ/mol]
      delta MP2,r (2)               0.07922822 [mEh]       0.04971646 [kcal/mol]       0.20801366 [kJ/mol]

    Dispersion                    -10.90215018 [mEh]      -6.84120252 [kcal/mol]     -28.62359136 [kJ/mol]
      Disp20                      -14.17421375 [mEh]      -8.89445341 [kcal/mol]     -37.21439308 [kJ/mol]
      Disp21                        1.51734233 [mEh]       0.95214669 [kcal/mol]       3.98378173 [kJ/mol]
      Disp22 (SDQ)                  0.82511092 [mEh]       0.51776492 [kcal/mol]       2.16632843 [kJ/mol]
      Disp22 (T)                   -1.89724483 [mEh]      -1.19053911 [kcal/mol]      -4.98121562 [kJ/mol]
      Est. Disp22 (T)              -2.15760089 [mEh]      -1.35391500 [kcal/mol]      -5.66478035 [kJ/mol]
      Exch-Disp20                   3.08721121 [mEh]       1.93725428 [kcal/mol]       8.10547191 [kJ/mol]

  Total HF                         -5.14921043 [mEh]      -3.23117833 [kcal/mol]     -13.51925011 [kJ/mol]
  Total SAPT0                     -16.23621297 [mEh]     -10.18837746 [kcal/mol]     -42.62817129 [kJ/mol]
  Total SAPT2                     -15.00036324 [mEh]      -9.41287005 [kcal/mol]     -39.38344827 [kJ/mol]
  Total SAPT2+                    -14.81551088 [mEh]      -9.29687344 [kcal/mol]     -38.89811846 [kJ/mol]
  Total SAPT2+dMP2                -14.73628266 [mEh]      -9.24715698 [kcal/mol]     -38.69010480 [kJ/mol]

  Special recipe for scaled SAPT0 (see Manual):
    Electrostatics sSAPT0         -30.38854912 [mEh]     -19.06910246 [kcal/mol]     -79.78512471 [kJ/mol]
    Exchange sSAPT0                48.45643967 [mEh]      30.40687496 [kcal/mol]     127.22236483 [kJ/mol]
    Induction sSAPT0              -21.77535621 [mEh]     -13.66424231 [kcal/mol]     -57.17118984 [kJ/mol]
    Dispersion sSAPT0             -10.68459209 [mEh]      -6.70468276 [kcal/mol]     -28.05239267 [kJ/mol]
  Total sSAPT0                    -14.39205774 [mEh]      -9.03115258 [kcal/mol]     -37.78634239 [kJ/mol]
  --------------------------------------------------------------------------------------------------------

*** Psi4 exiting successfully. Buy a developer a beer!
